Cl32Li192P32S160
1.0
   20.5609999999999999    0.0000000000000000    0.0000000000000013
    0.0000000000000033   20.5609999999999999    0.0000000000000013
    0.0000000000000000    0.0000000000000000   20.5609999999999999
Li  P  S  Cl
192  32  160  32
Direct configuration=      1
0.0115753100000000    0.1249939200000000    0.1249939200000000
0.1249939200000000    0.4884003700000000    0.3749817600000000
0.4884003700000000    0.3749817600000000    0.1249939200000000
0.3749817600000000    0.0115753100000000    0.3749817600000000
0.0115753100000000    0.3749817600000000    0.3749817600000000
0.1249939200000000    0.0115753100000000    0.1249939200000000
0.4884003700000000    0.1249939200000000    0.3749817600000000
0.3749817600000000    0.4884003700000000    0.1249939200000000
0.3749817600000000    0.1249939200000000    0.4884003700000000
0.3749817599999998    0.3749817600000000    0.0115753100000000
0.1249939200000000    0.1249939200000000    0.0115753100000000
0.1249939200000000    0.3749817600000000    0.4884003700000000
0.2615631500000000    0.3749817600000000    0.1249939200000000
0.3749817599999998    0.2384125300000000    0.3749817600000000
0.2384125300000000    0.1249939200000000    0.1249939200000000
0.1249939200000000    0.2615631500000000    0.3749817600000000
0.2615631500000000    0.1249939200000000    0.3749817600000000
0.3749817599999998    0.2615631500000000    0.1249939200000000
0.2384125300000000    0.3749817600000000    0.3749817600000000
0.1249939200000000    0.2384125300000000    0.1249939200000000
0.1249939200000000    0.1249939200000000    0.2384125300000000
0.1249939200000000    0.3749817600000000    0.2615631500000000
0.3749817600000000    0.1249939200000000    0.2615631500000000
0.3749817599999998    0.3749817600000000    0.2384125300000000
0.0115753100000000    0.1249939200000000    0.6249696000000000
0.1249939200000000    0.4884003700000000    0.8750060800000000
0.4884003700000000    0.3749817600000000    0.6249695999999998
0.3749817600000000    0.0115753100000000    0.8750060799999998
0.0115753100000000    0.3749817600000000    0.8750060799999998
0.1249939200000000    0.0115753100000000    0.6249696000000000
0.4884003700000000    0.1249939200000000    0.8750060800000000
0.3749817600000000    0.4884003700000000    0.6249695999999998
0.3749817600000000    0.1249939200000000    0.9884246900000000
0.3749817599999998    0.3749817600000000    0.5115509899999998
0.1249939200000000    0.1249939200000000    0.5115509900000000
0.1249939200000000    0.3749817600000000    0.9884246900000000
0.2615631500000000    0.3749817600000000    0.6249695999999999
0.3749817599999998    0.2384125300000000    0.8750060800000000
0.2384125300000000    0.1249939200000000    0.6249696000000000
0.1249939200000000    0.2615631500000000    0.8750060799999998
0.2615631500000000    0.1249939200000000    0.8750060799999998
0.3749817599999998    0.2615631500000000    0.6249695999999999
0.2384125300000000    0.3749817600000000    0.8750060800000000
0.1249939200000000    0.2384125300000000    0.6249696000000000
0.1249939200000000    0.1249939200000000    0.7384368500000000
0.1249939200000000    0.3749817600000000    0.7615388400000001
0.3749817600000000    0.1249939200000000    0.7615388400000001
0.3749817599999998    0.3749817600000000    0.7384368499999999
0.0115753100000000    0.6249696000000000    0.1249939200000000
0.1249939200000000    0.9884246899999999    0.3749817600000000
0.4884003700000000    0.8750060800000000    0.1249939200000000
0.3749817600000000    0.5115509900000000    0.3749817599999999
0.0115753100000000    0.8750060800000000    0.3749817599999999
0.1249939200000000    0.5115509900000000    0.1249939200000000
0.4884003699999999    0.6249696000000000    0.3749817600000000
0.3749817600000000    0.9884246899999999    0.1249939200000000
0.3749817599999998    0.6249696000000000    0.4884003700000000
0.3749817599999998    0.8750060800000000    0.0115753100000000
0.1249939200000000    0.6249696000000000    0.0115753100000000
0.1249939200000000    0.8750060800000000    0.4884003700000000
0.2615631500000000    0.8750060800000000    0.1249939200000000
0.3749817600000000    0.7384368500000000    0.3749817600000000
0.2384125300000000    0.6249696000000000    0.1249939200000000
0.1249939200000000    0.7615388400000001    0.3749817599999999
0.2615631500000000    0.6249696000000000    0.3749817599999999
0.3749817600000000    0.7615388400000001    0.1249939200000000
0.2384125300000000    0.8750060800000000    0.3749817600000000
0.1249939200000000    0.7384368500000000    0.1249939200000000
0.1249939200000000    0.6249696000000000    0.2384125300000000
0.1249939200000000    0.8750060800000000    0.2615631500000000
0.3749817599999998    0.6249696000000000    0.2615631500000000
0.3749817599999998    0.8750060800000000    0.2384125300000000
0.0115753100000000    0.6249696000000000    0.6249695999999999
0.1249939200000000    0.9884246899999999    0.8750060800000000
0.4884003700000000    0.8750060800000000    0.6249696000000000
0.3749817600000000    0.5115509900000000    0.8750060800000000
0.0115753100000000    0.8750060800000000    0.8750060800000000
0.1249939200000000    0.5115509900000000    0.6249695999999999
0.4884003699999999    0.6249696000000000    0.8750060800000000
0.3749817600000000    0.9884246899999999    0.6249696000000000
0.3749817599999998    0.6249696000000000    0.9884246900000000
0.3749817599999998    0.8750060800000000    0.5115509900000000
0.1249939200000000    0.6249696000000000    0.5115509899999998
0.1249939200000000    0.8750060800000000    0.9884246900000000
0.2615631500000000    0.8750060800000000    0.6249696000000000
0.3749817600000000    0.7384368500000000    0.8750060800000000
0.2384125300000000    0.6249696000000000    0.6249695999999998
0.1249939200000000    0.7615388400000001    0.8750060800000000
0.2615631500000000    0.6249696000000000    0.8750060800000000
0.3749817600000000    0.7615388400000001    0.6249696000000000
0.2384125300000000    0.8750060800000000    0.8750060800000000
0.1249939200000000    0.7384368500000000    0.6249695999999998
0.1249939200000000    0.6249696000000000    0.7384368499999999
0.1249939200000000    0.8750060800000000    0.7615388399999998
0.3749817599999998    0.6249696000000000    0.7615388399999998
0.3749817599999998    0.8750060800000000    0.7384368499999998
0.5115509900000000    0.1249939200000000    0.1249939200000000
0.6249696000000000    0.4884003700000000    0.3749817600000000
0.9884246899999997    0.3749817600000000    0.1249939200000000
0.8750060800000000    0.0115753100000000    0.3749817599999999
0.5115509900000000    0.3749817600000000    0.3749817599999999
0.6249696000000000    0.0115753100000000    0.1249939200000000
0.9884246899999999    0.1249939200000000    0.3749817600000000
0.8750060799999998    0.4884003700000000    0.1249939200000000
0.8750060800000000    0.1249939200000000    0.4884003700000000
0.8750060799999998    0.3749817600000000    0.0115753100000000
0.6249696000000000    0.1249939200000000    0.0115753100000000
0.6249696000000000    0.3749817600000000    0.4884003700000000
0.7615388400000001    0.3749817600000000    0.1249939200000000
0.8750060800000000    0.2384125300000000    0.3749817600000000
0.7384368500000000    0.1249939200000000    0.1249939200000000
0.6249696000000000    0.2615631500000000    0.3749817599999999
0.7615388400000001    0.1249939200000000    0.3749817599999999
0.8750060800000000    0.2615631500000000    0.1249939200000000
0.7384368500000000    0.3749817600000000    0.3749817600000000
0.6249696000000000    0.2384125300000000    0.1249939200000000
0.6249696000000000    0.1249939200000000    0.2384125300000000
0.6249696000000000    0.3749817600000000    0.2615631500000000
0.8750060800000000    0.1249939200000000    0.2615631500000000
0.8750060799999998    0.3749817600000000    0.2384125300000000
0.5115509900000000    0.1249939200000000    0.6249695999999999
0.6249696000000000    0.4884003700000000    0.8750060800000000
0.9884246899999997    0.3749817600000000    0.6249696000000000
0.8750060800000000    0.0115753100000000    0.8750060800000000
0.5115509900000000    0.3749817600000000    0.8750060800000000
0.6249696000000000    0.0115753100000000    0.6249695999999999
0.9884246899999999    0.1249939200000000    0.8750060800000000
0.8750060799999998    0.4884003700000000    0.6249696000000000
0.8750060800000000    0.1249939200000000    0.9884246900000000
0.8750060799999998    0.3749817600000000    0.5115509900000000
0.6249696000000000    0.1249939200000000    0.5115509899999998
0.6249696000000000    0.3749817600000000    0.9884246900000000
0.7615388400000001    0.3749817600000000    0.6249696000000000
0.8750060800000000    0.2384125300000000    0.8750060800000000
0.7384368500000000    0.1249939200000000    0.6249695999999998
0.6249696000000000    0.2615631500000000    0.8750060800000000
0.7615388400000001    0.1249939200000000    0.8750060800000000
0.8750060800000000    0.2615631500000000    0.6249696000000000
0.7384368500000000    0.3749817600000000    0.8750060800000000
0.6249696000000000    0.2384125300000000    0.6249695999999998
0.6249696000000000    0.1249939200000000    0.7384368499999999
0.6249696000000000    0.3749817600000000    0.7615388399999998
0.8750060800000000    0.1249939200000000    0.7615388399999998
0.8750060799999998    0.3749817600000000    0.7384368499999998
0.5115509900000000    0.6249696000000000    0.1249939200000000
0.6249696000000000    0.9884246899999999    0.3749817599999999
0.9884246899999999    0.8750060800000000    0.1249939200000000
0.8750060799999998    0.5115509900000000    0.3749817600000000
0.5115509900000000    0.8750060800000000    0.3749817600000000
0.6249696000000000    0.5115509900000000    0.1249939200000000
0.9884246899999999    0.6249696000000000    0.3749817599999999
0.8750060800000000    0.9884246899999999    0.1249939200000000
0.8750060800000000    0.6249696000000000    0.4884003700000000
0.8750060800000000    0.8750060800000000    0.0115753100000000
0.6249696000000000    0.6249696000000000    0.0115753100000000
0.6249696000000000    0.8750060800000000    0.4884003700000000
0.7615388400000001    0.8750060800000000    0.1249939200000000
0.8750060800000000    0.7384368500000000    0.3749817599999999
0.7384368500000000    0.6249696000000000    0.1249939200000000
0.6249696000000000    0.7615388400000001    0.3749817600000000
0.7615388400000001    0.6249696000000000    0.3749817600000000
0.8750060800000000    0.7615388400000001    0.1249939200000000
0.7384368500000001    0.8750060800000000    0.3749817599999999
0.6249696000000000    0.7384368500000000    0.1249939200000000
0.6249696000000000    0.6249696000000000    0.2384125300000000
0.6249696000000000    0.8750060800000000    0.2615631500000000
0.8750060800000000    0.6249696000000000    0.2615631500000000
0.8750060800000000    0.8750060800000000    0.2384125300000000
0.5115509900000000    0.6249696000000000    0.6249696000000000
0.6249696000000000    0.9884246899999999    0.8750060800000000
0.9884246899999999    0.8750060800000000    0.6249696000000000
0.8750060799999998    0.5115509900000000    0.8750060799999998
0.5115509900000000    0.8750060800000000    0.8750060799999998
0.6249696000000000    0.5115509900000000    0.6249696000000000
0.9884246899999999    0.6249696000000000    0.8750060800000000
0.8750060800000000    0.9884246899999999    0.6249696000000000
0.8750060800000000    0.6249696000000000    0.9884246899999999
0.8750060800000000    0.8750060800000000    0.5115509900000000
0.6249696000000000    0.6249696000000000    0.5115509900000000
0.6249696000000000    0.8750060800000000    0.9884246899999999
0.7615388400000001    0.8750060800000000    0.6249696000000000
0.8750060800000000    0.7384368500000000    0.8750060800000000
0.7384368500000000    0.6249696000000000    0.6249696000000000
0.6249696000000000    0.7615388400000001    0.8750060799999998
0.7615388400000001    0.6249696000000000    0.8750060799999998
0.8750060800000000    0.7615388400000001    0.6249696000000000
0.7384368500000001    0.8750060800000000    0.8750060800000000
0.6249696000000000    0.7384368500000000    0.6249696000000000
0.6249696000000000    0.6249696000000000    0.7384368499999998
0.6249696000000000    0.8750060800000000    0.7615388400000001
0.8750060800000000    0.6249696000000000    0.7615388400000001
0.8750060800000000    0.8750060800000000    0.7384368500000000
0.0000000000000000    0.0000000000000000    0.2499878400000000
0.2499878400000000    0.0000000000000000    0.0000000000000000
0.0000000000000000    0.2499878400000000    0.0000000000000000
0.2499878400000000    0.2499878400000000    0.2499878400000000
0.0000000000000000    0.0000000000000000    0.7499635200000000
0.2499878400000000    0.0000000000000000    0.4999756799999999
0.0000000000000000    0.2499878400000000    0.4999756799999999
0.2499878400000000    0.2499878400000000    0.7499635199999999
0.0000000000000000    0.4999756799999999    0.2499878400000000
0.2499878400000000    0.4999756799999999    0.0000000000000000
0.0000000000000000    0.7499635200000000    0.0000000000000000
0.2499878400000000    0.7499635200000000    0.2499878400000000
0.0000000000000000    0.4999756799999999    0.7499635199999999
0.2499878400000000    0.4999756799999999    0.4999756799999999
0.0000000000000000    0.7499635200000000    0.4999756799999999
0.2499878400000000    0.7499635200000000    0.7499635200000000
0.4999756799999999    0.0000000000000000    0.2499878400000000
0.7499635200000000    0.0000000000000000    0.0000000000000000
0.4999756799999999    0.2499878400000000    0.0000000000000000
0.7499635200000000    0.2499878400000000    0.2499878400000000
0.4999756799999999    0.0000000000000000    0.7499635199999999
0.7499635200000000    0.0000000000000000    0.4999756799999999
0.4999756799999999    0.2499878400000000    0.4999756799999999
0.7499635200000000    0.2499878400000000    0.7499635200000000
0.4999756799999999    0.4999756799999999    0.2499878400000000
0.7499635199999999    0.4999756799999999    0.0000000000000000
0.4999756799999999    0.7499635200000000    0.0000000000000000
0.7499635199999999    0.7499635200000000    0.2499878400000000
0.4999756799999999    0.4999756799999999    0.7499635200000000
0.7499635199999999    0.4999756799999999    0.4999756799999999
0.4999756799999999    0.7499635200000000    0.4999756799999999
0.7499635199999999    0.7499635200000000    0.7499635200000000
0.0577792900000000    0.0577792900000000    0.3078157700000000
0.0577792900000000    0.4421963899999999    0.1922085500000000
0.4421963899999999    0.4421963899999999    0.3078157700000000
0.4421963899999999    0.0577792900000000    0.1922085500000000
0.3078157700000000    0.0577792900000000    0.0577792900000000
0.1922085500000000    0.0577792900000000    0.4421963899999999
0.3078157700000000    0.4421963899999999    0.4421963899999999
0.1922085500000000    0.4421963899999999    0.0577792900000000
0.0577792900000000    0.3078157700000000    0.0577792900000000
0.4421963899999999    0.1922085500000000    0.0577792900000000
0.4421963899999999    0.3078157700000000    0.4421963899999999
0.0577792900000000    0.1922085500000000    0.4421963899999999
0.3078157700000000    0.3078157700000000    0.3078157700000000
0.3078157700000000    0.1922085500000000    0.1922085500000000
0.1922085500000000    0.1922085500000000    0.3078157699999999
0.1922085500000000    0.3078157700000000    0.1922085500000000
0.1249939200000000    0.1249939200000000    0.1249939200000000
0.1249939200000000    0.3749817600000000    0.3749817600000000
0.3749817599999998    0.3749817600000000    0.1249939200000000
0.3749817600000000    0.1249939200000000    0.3749817600000000
0.0577792900000000    0.0577792900000000    0.8077914500000000
0.0577792900000000    0.4421963899999999    0.6921842300000000
0.4421963899999999    0.4421963899999999    0.8077914500000000
0.4421963899999999    0.0577792900000000    0.6921842300000000
0.3078157700000000    0.0577792900000000    0.5578036100000000
0.1922085500000000    0.0577792900000000    0.9421720699999998
0.3078157700000000    0.4421963899999999    0.9421720700000000
0.1922085500000000    0.4421963899999999    0.5578036100000000
0.0577792900000000    0.3078157700000000    0.5578036100000000
0.4421963899999999    0.1922085500000000    0.5578036100000000
0.4421963899999999    0.3078157700000000    0.9421720700000000
0.0577792900000000    0.1922085500000000    0.9421720699999998
0.3078157700000000    0.3078157700000000    0.8077914500000000
0.3078157700000000    0.1922085500000000    0.6921842300000000
0.1922085500000000    0.1922085500000000    0.8077914499999997
0.1922085500000000    0.3078157700000000    0.6921842300000000
0.1249939200000000    0.1249939200000000    0.6249696000000000
0.1249939200000000    0.3749817600000000    0.8750060799999998
0.3749817599999998    0.3749817600000000    0.6249695999999998
0.3749817600000000    0.1249939200000000    0.8750060799999998
0.0577792900000000    0.5578036100000000    0.3078157700000000
0.0577792900000000    0.9421720700000000    0.1922085500000000
0.4421963899999999    0.9421720700000000    0.3078157700000000
0.4421963899999999    0.5578036100000000    0.1922085500000000
0.3078157700000000    0.5578036100000000    0.0577792900000000
0.1922085500000000    0.5578036100000000    0.4421963899999999
0.3078157700000000    0.9421720700000000    0.4421963899999999
0.1922085500000000    0.9421720700000000    0.0577792900000000
0.0577792900000000    0.8077914500000000    0.0577792900000000
0.4421963899999999    0.6921842300000000    0.0577792900000000
0.4421963899999999    0.8077914500000000    0.4421963899999999
0.0577792900000000    0.6921842300000000    0.4421963899999999
0.3078157700000000    0.8077914500000000    0.3078157699999999
0.3078157700000000    0.6921842300000000    0.1922085500000000
0.1922085500000000    0.6921842300000000    0.3078157700000000
0.1922085500000000    0.8077914500000000    0.1922085500000000
0.1249939200000000    0.6249696000000000    0.1249939200000000
0.1249939200000000    0.8750060800000000    0.3749817599999999
0.3749817599999998    0.8750060800000000    0.1249939200000000
0.3749817599999998    0.6249696000000000    0.3749817599999999
0.0577792900000000    0.5578036100000000    0.8077914500000000
0.0577792900000000    0.9421720700000000    0.6921842299999997
0.4421963899999999    0.9421720700000000    0.8077914499999997
0.4421963899999999    0.5578036100000000    0.6921842299999997
0.3078157700000000    0.5578036100000000    0.5578036099999998
0.1922085500000000    0.5578036100000000    0.9421720700000000
0.3078157700000000    0.9421720700000000    0.9421720700000000
0.1922085500000000    0.9421720700000000    0.5578036100000000
0.0577792900000000    0.8077914500000000    0.5578036099999998
0.4421963899999999    0.6921842300000000    0.5578036100000000
0.4421963899999999    0.8077914500000000    0.9421720700000000
0.0577792900000000    0.6921842300000000    0.9421720700000000
0.3078157700000000    0.8077914500000000    0.8077914500000000
0.3078157700000000    0.6921842300000000    0.6921842299999997
0.1922085500000000    0.6921842300000000    0.8077914500000000
0.1922085500000000    0.8077914500000000    0.6921842299999997
0.1249939200000000    0.6249696000000000    0.6249695999999998
0.1249939200000000    0.8750060800000000    0.8750060800000000
0.3749817599999998    0.8750060800000000    0.6249696000000000
0.3749817599999998    0.6249696000000000    0.8750060800000000
0.5578036100000000    0.0577792900000000    0.3078157700000000
0.5578036100000000    0.4421963899999999    0.1922085500000000
0.9421720699999998    0.4421963899999999    0.3078157700000000
0.9421720700000000    0.0577792900000000    0.1922085500000000
0.8077914500000000    0.0577792900000000    0.0577792900000000
0.6921842300000000    0.0577792900000000    0.4421963899999999
0.8077914499999997    0.4421963899999999    0.4421963899999999
0.6921842300000000    0.4421963899999999    0.0577792900000000
0.5578036100000001    0.3078157700000000    0.0577792900000000
0.9421720700000000    0.1922085500000000    0.0577792900000000
0.9421720700000000    0.3078157700000000    0.4421963899999999
0.5578036100000000    0.1922085500000000    0.4421963899999999
0.8077914500000000    0.3078157700000000    0.3078157699999999
0.8077914500000000    0.1922085500000000    0.1922085500000000
0.6921842300000000    0.1922085500000000    0.3078157700000000
0.6921842300000001    0.3078157700000000    0.1922085500000000
0.6249696000000000    0.1249939200000000    0.1249939200000000
0.6249696000000000    0.3749817600000000    0.3749817599999999
0.8750060799999998    0.3749817600000000    0.1249939200000000
0.8750060800000000    0.1249939200000000    0.3749817599999999
0.5578036100000000    0.0577792900000000    0.8077914500000000
0.5578036100000000    0.4421963899999999    0.6921842299999997
0.9421720699999998    0.4421963899999999    0.8077914499999997
0.9421720700000000    0.0577792900000000    0.6921842299999997
0.8077914500000000    0.0577792900000000    0.5578036099999998
0.6921842300000000    0.0577792900000000    0.9421720700000000
0.8077914499999997    0.4421963899999999    0.9421720700000000
0.6921842300000000    0.4421963899999999    0.5578036100000000
0.5578036100000001    0.3078157700000000    0.5578036099999998
0.9421720700000000    0.1922085500000000    0.5578036100000000
0.9421720700000000    0.3078157700000000    0.9421720700000000
0.5578036100000000    0.1922085500000000    0.9421720700000000
0.8077914500000000    0.3078157700000000    0.8077914500000000
0.8077914500000000    0.1922085500000000    0.6921842299999997
0.6921842300000000    0.1922085500000000    0.8077914500000000
0.6921842300000001    0.3078157700000000    0.6921842299999997
0.6249696000000000    0.1249939200000000    0.6249695999999998
0.6249696000000000    0.3749817600000000    0.8750060800000000
0.8750060799999998    0.3749817600000000    0.6249696000000000
0.8750060800000000    0.1249939200000000    0.8750060800000000
0.5578036100000000    0.5578036100000000    0.3078157699999999
0.5578036100000001    0.9421720700000000    0.1922085500000000
0.9421720700000000    0.9421720700000000    0.3078157699999999
0.9421720700000000    0.5578036100000000    0.1922085500000000
0.8077914500000000    0.5578036100000000    0.0577792900000000
0.6921842300000000    0.5578036100000000    0.4421963899999999
0.8077914500000000    0.9421720700000000    0.4421963900000001
0.6921842300000001    0.9421720700000000    0.0577792900000000
0.5578036100000001    0.8077914500000000    0.0577792900000000
0.9421720700000000    0.6921842300000000    0.0577792900000000
0.9421720700000000    0.8077914500000000    0.4421963900000001
0.5578036100000000    0.6921842300000000    0.4421963899999999
0.8077914500000000    0.8077914500000000    0.3078157700000000
0.8077914500000000    0.6921842300000000    0.1922085500000000
0.6921842300000000    0.6921842300000000    0.3078157700000000
0.6921842300000001    0.8077914500000000    0.1922085500000000
0.6249696000000000    0.6249696000000000    0.1249939200000000
0.6249696000000000    0.8750060800000000    0.3749817600000000
0.8750060800000000    0.8750060800000000    0.1249939200000000
0.8750060800000000    0.6249696000000000    0.3749817600000000
0.5578036100000000    0.5578036100000000    0.8077914500000000
0.5578036100000001    0.9421720700000000    0.6921842300000000
0.9421720700000000    0.9421720700000000    0.8077914500000000
0.9421720700000000    0.5578036100000000    0.6921842300000000
0.8077914500000000    0.5578036100000000    0.5578036100000000
0.6921842300000000    0.5578036100000000    0.9421720700000000
0.8077914500000000    0.9421720700000000    0.9421720700000000
0.6921842300000001    0.9421720700000000    0.5578036100000000
0.5578036100000001    0.8077914500000000    0.5578036100000000
0.9421720700000000    0.6921842300000000    0.5578036100000000
0.9421720700000000    0.8077914500000000    0.9421720700000000
0.5578036100000000    0.6921842300000000    0.9421720700000000
0.8077914500000000    0.8077914500000000    0.8077914500000000
0.8077914500000000    0.6921842300000000    0.6921842300000000
0.6921842300000000    0.6921842300000000    0.8077914499999997
0.6921842300000001    0.8077914500000000    0.6921842300000000
0.6249696000000000    0.6249696000000000    0.6249696000000000
0.6249696000000000    0.8750060800000000    0.8750060799999998
0.8750060800000000    0.8750060800000000    0.6249696000000000
0.8750060800000000    0.6249696000000000    0.8750060799999998
0.0000000000000000    0.0000000000000000    0.0000000000000000
0.2499878400000000    0.2499878400000000    0.0000000000000000
0.2499878400000000    0.0000000000000000    0.2499878400000000
0.0000000000000000    0.2499878400000000    0.2499878400000000
0.0000000000000000    0.0000000000000000    0.4999756799999999
0.2499878400000000    0.2499878400000000    0.4999756799999999
0.2499878400000000    0.0000000000000000    0.7499635200000000
0.0000000000000000    0.2499878400000000    0.7499635200000000
0.0000000000000000    0.4999756799999999    0.0000000000000000
0.2499878400000000    0.7499635200000000    0.0000000000000000
0.2499878400000000    0.4999756799999999    0.2499878400000000
0.0000000000000000    0.7499635200000000    0.2499878400000000
0.0000000000000000    0.4999756799999999    0.4999756799999999
0.2499878400000000    0.7499635200000000    0.4999756799999999
0.2499878400000000    0.4999756799999999    0.7499635200000000
0.0000000000000000    0.7499635200000000    0.7499635200000000
0.4999756799999999    0.0000000000000000    0.0000000000000000
0.7499635200000000    0.2499878400000000    0.0000000000000000
0.7499635200000000    0.0000000000000000    0.2499878400000000
0.4999756799999999    0.2499878400000000    0.2499878400000000
0.4999756799999999    0.0000000000000000    0.4999756799999999
0.7499635200000000    0.2499878400000000    0.4999756799999999
0.7499635200000000    0.0000000000000000    0.7499635200000000
0.4999756799999999    0.2499878400000000    0.7499635200000000
0.4999756799999999    0.4999756799999999    0.0000000000000000
0.7499635199999999    0.7499635200000000    0.0000000000000000
0.7499635199999999    0.4999756799999999    0.2499878400000000
0.4999756799999999    0.7499635200000000    0.2499878400000000
0.4999756799999999    0.4999756799999999    0.4999756799999999
0.7499635199999999    0.7499635200000000    0.4999756799999999
0.7499635199999999    0.4999756799999999    0.7499635200000000
0.4999756799999999    0.7499635200000000    0.7499635200000000
Direct configuration=      2
0.0114719056981712    0.1250397692008773    0.1250880548813717
0.1246197371196893    0.4886374668714392    0.3745553676713271
0.4883374914688494    0.3753033255117363    0.1244913131649710
0.3746077851196245    0.0113420444618452    0.3745841012820203
0.0112926473083374    0.3749735116910653    0.3745468397373878
0.1254626786264967    0.0113335635946331    0.1256220885157499
0.4890120500668707    0.1252922806955543    0.3742182919037184
0.3744024174404485    0.4882729026266087    0.1243876248048058
0.3754871314275776    0.1242493374027882    0.4885071714131101
0.3747946963547336    0.3754465544071399    0.0110255318529698
0.1253950727441062    0.1251031846115034    0.0113023272878496
0.1252613944098931    0.3754877143344597    0.4880340137211158
0.2613457021684343    0.3740991537294203    0.1246618508221990
0.3745914848101953    0.2384578572648139    0.3750159557037201
0.2382262557615310    0.1247019244414101    0.1253878735097214
0.1250104548437881    0.2622291016289006    0.3753191224563237
0.2611617260894457    0.1245943802491729    0.3751560184574778
0.3745954268214033    0.2616296734796908    0.1251549907465598
0.2385916899487300    0.3751531983938323    0.3746744029674349
0.1244145066177269    0.2375568940450383    0.1249161130902165
0.1257131738272323    0.1242030661376439    0.2389612287225766
0.1242222733641887    0.3744598858374265    0.2613671526854659
0.3755397259599301    0.1245944594667296    0.2619319315613164
0.3754445395527167    0.3754526449830631    0.2384427692887270
0.0117540030147580    0.1252479702816906    0.6253532985925967
0.1250237795227672    0.4882726749884695    0.8738487725982136
0.4879038484151836    0.3749576403216494    0.6254940591537232
0.3759999810613686    0.0114949752346449    0.8748313211404208
0.0110343613175061    0.3755294757185840    0.8744195805432183
0.1245494340857953    0.0113670335275367    0.6245543533798243
0.4891298178733641    0.1252270316036343    0.8747985652845078
0.3754258070193929    0.4880962140014765    0.6254343579264255
0.3752911937566882    0.1244683618399943    0.9881030357403499
0.3749299701593736    0.3743269292613961    0.5118131128584199
0.1247279256911324    0.1247785157055113    0.5111273010446150
0.1248982551922591    0.3751471763541271    0.9886294257695339
0.2618932572041861    0.3754773833808128    0.6250947955065518
0.3746953065858451    0.2385263856653109    0.8745554905218818
0.2384366552501687    0.1248659044845603    0.6248698128848427
0.1249444443292962    0.2611526744487335    0.8742347725241976
0.2614309028753913    0.1256618581568918    0.8743825820528260
0.3749624323378161    0.2618814721771167    0.6251685505903514
0.2384474978261468    0.3748456325833355    0.8759747928207321
0.1252546312301052    0.2388684307793224    0.6253581219516205
0.1246102074439021    0.1251206627971749    0.7389579280602397
0.1251182437510381    0.3749105364050104    0.7612189111877259
0.3751696333441044    0.1250049842786628    0.7621235336079497
0.3743381204963818    0.3751095970380818    0.7382074396002848
0.0118823859442520    0.6251617361950677    0.1253634984329107
0.1254338171800168    0.9884062991183619    0.3744995195249247
0.4885572950071372    0.8749615708048735    0.1252384175481682
0.3747053927340040    0.5118497611450601    0.3747827582837036
0.0118656633480433    0.8749808861089056    0.3749854974489628
0.1249952091744290    0.5111548198280955    0.1247163830506671
0.4886133742381265    0.6251073088485137    0.3748529472869017