Cl48Li287P48S240
1.0
   25.1819793006824639    0.0000000000000000    0.0000000000000015
   -0.0000000000000009   14.5388225279766061    0.0000000000000009
    0.0000000000000000    0.0000000000000000   37.2126966544236950
Li  P  S  Cl
287  48  240  48
Direct configuration=      1
0.0362480030753664    0.1151144967555074    0.1911072608824581
0.5387483014929231    0.6165148669056133    0.1855661282844802
0.7156232675611900    0.1198373940595548    0.3502720019377171
0.2166284645025726    0.6283461278269189    0.3455210944164998
0.3396716643081208    0.1712912852420563    0.0435237796173432
0.9175177459068493    0.5878400887145834    0.0280152181901599
0.0080309847547591    0.2486875758773571    0.2528543909611727
0.5061413417267147    0.7454053719482729    0.2496941027179213
0.6705982866042649    0.1696262977149202    0.4166098571199973
0.1692707420830818    0.6815721727996316    0.4106032856003612
0.3549286457841149    0.3129244440463412    0.0931441029557514
0.8488697419178236    0.7555995877828554    0.0832963745101017
0.1233667683117950    0.3633542913161922    0.2515334228370751
0.6179607543636253    0.8625894989957935    0.2504562160442739
0.7508715922830802    0.4069526539487054    0.4135797871270506
0.2454886593049178    0.9023140195535132    0.4151228712093042
0.4728767708656492    0.3635079730481005    0.0861938417573581
0.9954236231129198    0.8403486890800290    0.0901305441188712
0.1711929706349554    0.2515141784195384    0.1881178707421328
0.6735927912519324    0.7500041416164253    0.1883898046536870
0.8319343122285444    0.2595486380197698    0.3496358957249033
0.3336423529500395    0.7670463428541384    0.3493671101874654
0.5192182975742060    0.1900705080297010    0.0323701794427518
0.0166408002835954    0.7848320734354665    0.0123130686703730
0.1244794620563673    0.1397217925029038    0.2517154240220443
0.6184135769548410    0.6370755581455847    0.2506886999762800
0.8286957941771040    0.1670075686210387    0.4155616646684751
0.3267848818522414    0.6697073808862903    0.4122471500158902
0.4426946956810950    0.1215855354962955    0.0872568089714511
0.9679418046469592    0.6473081468601455    0.0885269997803096
0.0352786441833041    0.3835030681861199    0.1930386297750397
0.5387670811228408    0.8855093692416279    0.1876660763456275
0.7052019088100117    0.3593640167507322    0.3475669762879670
0.2023892497962788    0.8691434906387187    0.3480549088521376
0.3726537158263207    0.3629205502309983    0.0145789049275421
0.9278145126756681    0.9334971813374324    0.0421720928918945
0.9655685770052138    0.8702778106786250    0.3508517637188543
0.4643487713704633    0.3715299926932151    0.3472549022313989
0.6140084012991199    0.8412386614731248    0.0010892219663879
0.0786028497409998    0.4128256226236554    0.0384917234766307
0.2876682492928050    0.8688145947690292    0.1857075670364448
0.7896238429593395    0.3647113422614724    0.1916421915519525
0.9209679498780007    0.9185442551257963    0.4177293874221812
0.4204038557147745    0.4225027261214528    0.4124956394345298
0.6060933497651075    0.0184225859831288    0.0852462587873115
0.0955195334046865    0.5144920646290407    0.0981622499156419
0.2585878307226437    0.0004437402386598    0.2503025871831768
0.7579890014564374    0.5018764942250755    0.2524129656023567
0.0003864228458665    0.1564786129445873    0.4147986906080152
0.5121627329543845    0.6494050238235486    0.4115115849267903
0.7362889025614588    0.0925884313998324    0.0945309990575802
0.2072857702515097    0.6150262706052702    0.0836243110789679
0.3719550299040151    0.1143841258930804    0.2502145246594948
0.8735402814936657    0.6120339160647064    0.2518841886386228
0.0817436105531254    0.0104069297404859    0.3505034541117384
0.5757789335633726    0.5094523132042436    0.3436542726582862
0.7773433503897504    0.0010455964922548    0.0233436240612062
0.2742458805893042    0.4570622801012880    0.0112855596962571
0.4232813516025495    0.0019749575728273    0.1879525942619689
0.9210810256827441    0.5020024600805598    0.1892862831920383
0.0803841041909803    0.9195106613222637    0.4169938956742710
0.5789884344341252    0.4251727557351799    0.4141067245301725
0.7037669379621182    0.8687240008916978    0.0826997848734271
0.2009122852888443    0.3841114045065988    0.0854334336314922
0.3695796759802126    0.8873728292264123    0.2495562303144527
0.8746743753211248    0.3888355321007320    0.2524609723378546
0.9546745373990593    0.1098552661262378    0.3486607923104434
0.4506479547205511    0.6190467375556621    0.3496518030278394
0.6778234461101869    0.1664689490705338    0.0417825557347177
0.0766255338857743    0.5994244319715446    0.0360145495198023
0.2867777119418376    0.1357463881800931    0.1874685552649145
0.7893253450868755    0.6344812634255043    0.1889213933081241
0.0356255898450769    0.6173165690322092    0.1917622685037018
0.5405912400203585    0.1159469262456011    0.1874427476378809
0.7134191999162274    0.6175176321186069    0.3499555946464237
0.2166568670915114    0.1274523917476977    0.3460801007901201
0.3424901440253745    0.6267724964852743    0.0102424471608991
0.8701317730151509    0.1617235504102977    0.0179318911307468
0.0068994583767267    0.7528410187690903    0.2510446152946752
0.5098955918197463    0.2453189106399808    0.2511328601512756
0.6705525648155146    0.6693794472010842    0.4163445361763812
0.1691300625159239    0.1799734015790410    0.4111617386706697
0.3422555828634595    0.7853126081870920    0.0843139795842807
0.8393401632152867    0.2581865210820475    0.0917035247681477
0.1215928724154343    0.8650804481115393    0.2504785582491477
0.6233106152926200    0.3647080281148348    0.2504221656465114
0.7550822033423404    0.9038019483834103    0.4115566149505989
0.2459612371711009    0.4026320690755364    0.4151597238715434
0.4745607746013941    0.8569573506831348    0.0893936121076658
0.9663115631222808    0.3664831972113748    0.0928643318930080
0.1714073802340351    0.7532139047411621    0.1864156994007000
0.6752861687401646    0.2511858867031525    0.1905812439854760
0.8257639645295884    0.7599305247777876    0.3445870074835684
0.3329886397193927    0.2661822891281740    0.3489782337768448
0.5079615348073421    0.6999129342701698    0.0383311921667268
0.9895294690129127    0.3051263782321145    0.0175999088558596
0.1234425907593912    0.6398943488278171    0.2508769934910171
0.6230593964498181    0.1352862154074882    0.2507079426914677
0.8294457950074086    0.6806458464763109    0.4145588591344926
0.3269783929127913    0.1693278984020015    0.4123949635127074
0.4300898460701975    0.6242229004974861    0.0863309069750691
0.9525557321199319    0.1305076128123498    0.0850625961931637
0.0363085998544423    0.8850778422891984    0.1890357636796279
0.5392691178595352    0.3852456393219014    0.1884977011779340
0.7024674696194347    0.8624812644621197    0.3482922882796934
0.2019684257725317    0.3687656845927617    0.3485756604900347
0.4143103892708698    0.9187643180670894    0.0282204101203216
0.8846029202135165    0.3950717389209056    0.0277503066304220
0.7898130956338344    0.8634318438998703    0.1886800637557263
0.2873051287173727    0.3664162425591140    0.1884155708746474
0.4665288570767855    0.8753040367007372    0.3456883135576871
0.9681266509686646    0.3765050730793912    0.3474750594102391
0.0869949177110325    0.9254694277977210    0.0396197413265196
0.6576085254564854    0.3495289952408034    0.0224356831436001
0.7583389891930516    0.9907253843882524    0.2521934467643155
0.2605938234671584    0.5007543261913617    0.2513144678741859
0.4206416941585167    0.9233091962098189    0.4119674694454285
0.9209249281457990    0.4201000792773333    0.4130680781336849
0.0935093603087113    0.0598571044205384    0.0913836958447160
0.5951174729517958    0.5152630279021245    0.0858987009814737
0.8735092544886099    0.1084251679011535    0.2521442517876173
0.3711510421194221    0.6136028128530732    0.2502656524852264
0.5076954107030723    0.1564737728368022    0.4104433023702175
0.0018154758726797    0.6573142037367179    0.4149732032771065
0.2132231122048079    0.1211544435282943    0.0837007334350575
0.7237018227636896    0.6102134050537166    0.0850548860405760
0.9214564154402667    0.9994203161657106    0.1870267764991710
0.4234553633767208    0.5031231174836509    0.1874226041210838
0.5837410114767377    0.0113397990460467    0.3488829772568846
0.0822495232952917    0.5121488488223562    0.3505160584816523
0.2954798161990557    0.9421270295358278    0.0088437202801559
0.7613164496683574    0.4088992403410990    0.0485953301060272
0.8752836971123538    0.8891776726510631    0.2514343320288803
0.3723843075482736    0.3887821932138594    0.2497903955415971
0.5762888906468334    0.9244165156325987    0.4155919838190038
0.0807163899150721    0.4187762914974137    0.4171216765091096
0.1969009833125788    0.9031453647458048    0.0827642679137718
0.6753128926377677    0.3543106361758542    0.0952708854805375
0.7883684250593632    0.1352779309088291    0.1929821414105145
0.2879146105679058    0.6368627447278586    0.1865906403891570
0.4540849597598091    0.1132458832781677    0.3462744968417368
0.9542213936018766    0.6158930406648909    0.3495011825342361
0.0810318911838768    0.1305065664469646    0.0142886209649380
0.6220635350344365    0.6359158282741101    0.0218718098607558
0.3708899564746149    0.3810755305262397    0.8151793145586196
0.8639701772805565    0.8760008693312631    0.8110398064288029
0.0397620690898118    0.3645130842241081    0.6559733669867889
0.5394415630076336    0.8743051982092778    0.6543894428080007
0.7300074395700750    0.3819772547944568    0.9649213421305938
0.2042422527263613    0.8567971561811507    0.9747985979863640
0.3415356636859842    0.2562615469814071    0.7510763830228695
0.8358784688808681    0.7440729921700093    0.7497509253300144
0.0107641101633140    0.1637100332943321    0.5875600082759732
0.5108467409507794    0.6746265564436787    0.5917300537050688
0.6556303044361123    0.2284110095361320    0.9142854360202072
0.1512215766525321    0.7242810649761335    0.9141389806398699
0.4538158362611882    0.1351718941664769    0.7501119691769285
0.9476696604972865    0.6293467350434944    0.7478343559242020
0.1497688969853017    0.1651926997179630    0.5892153817790321
0.6613438203351385    0.6827061973008753    0.5898116990143889
0.7807183119567996    0.1091118274998919    0.9105505661266459
0.2987027737801924    0.6348630561645013    0.9109776822052493
0.5076507582367097    0.2494036440077633    0.8086876891903434
0.0054943031041952    0.7503746722003604    0.8035768937395061
0.1689966645903356    0.2656982219729783    0.6506942740244047
0.6621067750823262    0.7617652992870563    0.6601776240749265
0.8222778269763660    0.2926000587837904    0.9663615630278339
0.3251437177213927    0.8148110751481261    0.9573315440399622
0.4521338886017562    0.3656348327731670    0.7508548976085035
0.9464463917191809    0.8614299566851114    0.7467838054519748
0.0767697164468882    0.3991595954971342    0.5864931933582506
0.5671162612483338    0.8829837465768026    0.5820674047227256
0.7949525797889591    0.3587590714705617    0.9027542819733821
0.2575049822190489    0.8895367012292358    0.9075083436494191
0.3721617332807082    0.1143903281143518    0.8126153546213931
0.8640190651061522    0.6206897521644595    0.8116562565722956
0.0527034263763992    0.1378333764461391    0.6603105526281032
0.5518130068512916    0.6286607073871862    0.6584604007710562
0.7299782763301813    0.1188075674883089    0.9727878076500434
0.2366701792383490    0.6113320929698131    0.9701115356221723
0.2908051375838834    0.6116659050125433    0.6550805770617949
0.7966857802749885    0.1010661590808060    0.6641236448762531
0.9820028846511434    0.6292172773253004    0.9608540624631260
0.4658977214213171    0.1534569380694680    0.9664014124109462
0.6258252279627079    0.6364134075406238    0.8133403361428595
0.1245656179555464    0.1351245389183598    0.8086369003939117
0.2598045090310407    0.4222136493519549    0.5871405213816707
0.7578839297981611    0.9526513963796817    0.5901480798340708
0.9122661000377491    0.4927859655217948    0.8994355304282441
0.4042633700999598    0.9686119957595537    0.9175911506984928
0.5912451448188315    0.5199895197378989    0.7513562642682566
0.0904694065964237    0.9815554515734561    0.7472502657917525
0.4127933869258794    0.4258584629939076    0.5878131246910865
0.9076973619728256    0.9262066956877755    0.5867130641540980
0.0393809807097522    0.3459830380996534    0.9116788503771101
0.5629214100444203    0.9071908303304997    0.9131467694307641
0.7038651477570833    0.3848942957074829    0.7511620660359515
0.2103833864783520    0.8932229006959456    0.7477564115149118
0.4160502706453294    0.5099788536029816    0.6538952918522261
0.9203114690358031    0.0110270492338695    0.6506979536438695
0.0763557522389428    0.5255720714276438    0.9611896350200764
0.5643383636509453    0.0780053536979927    0.9701603500006336
0.7480813426656047    0.5059936011425599    0.8185783767763976
0.2564060994228665    0.0076691281616945    0.8079076721376200
0.3337967508114035    0.6533760807966849    0.5884274141545721
0.8262702091071404    0.1548301420286358    0.5903137518535331
0.0319824950820911    0.6174246523818622    0.8986412960794886
0.5227772313116438    0.1326396363248650    0.9056644275342077
0.7250890641255658    0.5922592491751072    0.7527399793933394
0.1866563677413399    0.1368901435345061    0.7477361315160268
0.2993909757359478    0.3645915283415302    0.6505000093728525
0.7979817494764414    0.8661457810728874    0.6508638482415893
0.9310710074732651    0.4065252437827306    0.9590647871726278
0.4913374710210078    0.8517840704397118    0.9625096245156772
0.6207478947014892    0.3622537310200506    0.8093755283518199
0.1239464820340524    0.8651534082871957    0.8078058562897202
0.3723156985527254    0.8849374343141465    0.8126940696800647
0.8565148788755591    0.3748849033774100    0.7973832394675949
0.0363714138582280    0.8685192790227393    0.6538409526257759
0.5407768232955319    0.3716164021692995    0.6558390734550108
0.7139723321391088    0.9136337678788858    0.9711361650979896
0.1858388602613458    0.3391674853131539    0.9796041617043990
0.3403808348662394    0.7541100931553509    0.7513208836170453
0.0125661471561282    0.6616751959293022    0.5858959855644916
0.5110445405684877    0.1779149118366013    0.5911156184319236
0.6601811095826839    0.7263625844845680    0.9238572880968369
0.1540669697076171    0.2089399909127743    0.9138510584204415
0.4549769448751171    0.6380212062492429    0.7508227243209710
0.9490100553393328    0.1398613038359901    0.7449689813195997
0.1471542809034994    0.6622442664120317    0.5899123658575626
0.6592937275728055    0.1838608362937132    0.5868589181434065
0.8017368518865073    0.5989806476501364    0.9265466547536840
0.2742274172047730    0.1014728926939003    0.9131555940580313
0.5064906564466255    0.7486963423436589    0.8131662736783155
0.9803106589055818    0.2517968739590799    0.8190794267380049
0.1633897032753435    0.7637710362345987    0.6539734380905836
0.6700401503052186    0.2641369732729060    0.6529777684626261
0.8502975281842887    0.7712518528640349    0.0008190934575840
0.3231107028111439    0.2273276241502309    0.9645363565615707
0.4530164563116145    0.8607114962994651    0.7506971139913470
0.9476554307877972    0.3549871454878385    0.7434122315135611
0.0783659693713543    0.8980878838657947    0.5863205025519634
0.5668169549228582    0.3864967577244969    0.5821478958323482
0.7984534015056211    0.8562707915261409    0.9240912179788368
0.2627166754485527    0.3951625055195268    0.9207405077609094
0.3720678593297036    0.6111647982744418    0.8123005126592232
0.8550402070984352    0.1238189829139477    0.7983672389286622
0.0487626528268836    0.6330101911557701    0.6588104087798187
0.5539493861173294    0.1339926082427720    0.6597159185398596
0.7190525655994966    0.5788637325773541    0.9994802336434483
0.2054581074951869    0.0963311034657527    0.9818854832214871
0.1242710234434907    0.6377589516150148    0.8049674382212780
0.6212106974205081    0.1327549483824786    0.8089797967916861
0.7816016489188967    0.6204431623482189    0.6493876345600609
0.2937843949979793    0.1017355856828139    0.6597879096156936
0.4630545117412436    0.6300980004803098    0.9719627403507898
0.9867758325010365    0.1209985682965878    0.9656812894294898
0.0921496382050972    0.5022986424363483    0.7471452239273246
0.5910077639834921    0.9817142365064374    0.7507104002144835
0.7559982038794530    0.4210843460731163    0.5893492089521167
0.2601449932508484    0.9212374272633153    0.5873592182187936
0.4045534723456272    0.4664011933140212    0.9221287974867151
0.9164614899923955    0.0017720278625517    0.9005937793403641
0.1879564110626434    0.3642734317118411    0.7488794660312644
0.7261186027496965    0.9049636389495179    0.7520773058531088
0.9108071367012537    0.4226653334765614    0.5876791660950751
0.4130989803241071    0.9242483559300615    0.5875544361544552
0.5286152695113072    0.3654784721946208    0.9088780645058657
0.0372944737667553    0.8564933693037547    0.9031534964515736
0.2558463033394068    0.4893470487267281    0.8107065221584717
0.7492786064035232    0.9940243418937952    0.8176790490976947
0.9121620284919485    0.5138172319860869    0.6521711824564711
0.4182013991663281    0.0091091101886469    0.6529416111389740
0.5805247593176526    0.4852516396470041    0.9675431938495417
0.0779662761808437    0.0101931588504547    0.9588211701325527
0.2132011512246225    0.5997463084904003    0.7468757544049753
0.6986555411403389    0.1112779850700940    0.7496858902760399
0.8314727293336421    0.6527051696544965    0.5869886841580493
0.3316969162268585    0.1539340616017925    0.5899107989749363
0.5345844418435313    0.6407826479643238    0.9125296191283717
0.0393779713349986    0.1109662287724795    0.8996696287817183
0.1245713075924669    0.3646679309683850    0.8108012458690494
0.6252610899574522    0.8580817345826456    0.8124251646292943
0.8010303610248501    0.3818810843814526    0.6568945127496753
0.3008437542921583    0.8621708815040243    0.6498010872260629
0.4907218651404273    0.3633490052605484    0.9756095437107573
0.9657876632945336    0.8678044132458823    0.9614267904677989
0.0076131029332895    0.9862045755516671    0.0083024458451395
0.5219733282932700    0.5389382544849666    0.0163092870648782
0.6688754220817467    0.9975913539549092    0.1710909348949780
0.1665537101195686    0.5006341346423513    0.1725037259426229
0.3332296435679565    0.0022344114457027    0.3344131238916420
0.8338581161092572    0.4994635081208531    0.3365376433209382
0.9169601233814608    0.7499199486020476    0.1689796129771411
0.4180037764371474    0.2514378715839403    0.1708186366250456
0.5836290387490266    0.7498028077430863    0.3345989924777988
0.0820126774712532    0.2498439890514691    0.3353514747402863
0.2686152895053003    0.7636512104525593    0.0155767476150177
0.7493324109947427    0.2580680588598829    0.0131704059474162
0.1652354677634998    0.0038774032721256    0.1695770702613064
0.6688120307594394    0.5012361431246701    0.1706268231187167
0.8345134037844077    0.9987237292152701    0.3357911424968773
0.3329074454929213    0.5017839118356150    0.3346750777282710
0.4901726939873471    0.0235019677531712    0.0157619556944060
0.9984221844133965    0.4919009769159184    0.0077089278683250
0.9167917508916821    0.2486383890323295    0.1728212591683156
0.4154944171677100    0.7515005173921904    0.1693609601512268
0.5850514437479474    0.2508689235680744    0.3347348896577832
0.0820799670871316    0.7507404903575747    0.3344113601681322
0.2698955143240239    0.2853720591120688    0.0165949190692811
0.7042432819940482    0.7489162381655706    0.0051538396783488
0.3344173747850370    0.4967500002444348    0.4996933769612874
0.8253449965887509    0.9805605905883396    0.5002217229475135
0.9970913526533626    0.4916192674680285    0.8204910589211789
0.4993466902644785    0.9969834306736857    0.8299686636423599
0.6686726855877090    0.5042988705552253    0.6670040778512012
0.1681352489744347    0.0005550369549558    0.6632389079819440
0.2468190216824681    0.7482932597425587    0.8288963272995731
0.7439556146263018    0.2452152233325403    0.8275300074853802
0.9150721245671900    0.7487183060764386    0.6636965535952950
0.4178161788963615    0.2495256998137066    0.6660742908110474
0.5735432403780694    0.7442773858336262    0.5012209095248561
0.0928226001423812    0.2471956644760805    0.4999682314395728
0.4985287238628213    0.4987799017194413    0.8314308169915517
0.9954000247258274    0.0009979319855753    0.8207435546682467
0.1681377621225186    0.4993915460963699    0.6636656295665008
0.6693044472459037    0.0024625375586424    0.6655241956059517
0.8335164452070751    0.4983212276874829    0.4997504746840163
0.3342043245274751    0.9968220597577814    0.4998334768220289
0.2490816859443277    0.2490438266731422    0.8335366441352937
0.7502745312896835    0.7468342559592805    0.8390785912045764
0.9154744835856621    0.2507568668354626    0.6604600140820956
0.4181240220003140    0.7488638766960947    0.6665367736386322
0.5748411702554268    0.2462147941473164    0.5002557868223677
0.0948018448402000    0.7479874931903762    0.4997599259153747
0.1676032726291106    0.0025281565011921    0.2256828834317686
0.6671951253355151    0.5048086824875878    0.2267392265406030
0.8347255359630050    0.9983401694878671    0.3907014941508372
0.3328434052335210    0.5002337669067900    0.3898616849660210
0.5107771184747588    0.0099217561187895    0.0723551514209358
0.0065513682544056    0.5067382027621404    0.0699434173434398
0.8689826922826558    0.1185215410849733    0.3167002220225184
0.3666205762565970    0.6220632623085901    0.3155972590467384
0.5383390118453789    0.1412666610495332    0.4697445313802452
0.0388030016806399    0.6449462422236587    0.4763100381780909
0.2024753721719704    0.1200800193032445    0.1501220797277106
0.7070203069004585    0.6166069277531407    0.1513986675650762
0.8769801197804903    0.3878021355015261    0.3179515681119048
0.3762274280229760    0.8916792860025265    0.3148071174241036
0.5528075551073303    0.3807589828105972    0.4762721507028861
0.0564872343471214    0.8820537456546195    0.4798818691063370
0.2032163340677401    0.3856823208848021    0.1519793220585250
0.7076107294324463    0.8833015136161219    0.1514384665156772
0.2560020045446691    0.9939937810832263    0.3154099714397227
0.7567739578503381    0.4897241735373412    0.3175147388089550
0.9119881823702581    0.9736615467379004    0.4806395047650367
0.4141160293198936    0.4728232576606459    0.4773663941410982
0.5929514615594376    0.9999902215290166    0.1512298150397225
0.0873040272739475    0.4987285885800579    0.1592338522288363
0.0828401829560568    0.2501662620432417    0.2158800781339567
0.5823098304690369    0.7495802700440409    0.2131915443008906
0.7507837411989761    0.2483275137259380    0.3844950951162361
0.2503014386319051    0.7518647784261439    0.3815711442268013
0.4249574495818645    0.2561421903383791    0.0510851761185673
0.9261896133678632    0.7554215909344904    0.0464728675253935
0.9174881090169489    0.2467138854766603    0.2289016447981456
0.4145756533387732    0.7505113593635151    0.2256150893948644
0.5854411275091311    0.2524502869152167    0.3896606175747426
0.0823872886283544    0.7509780995789206    0.3893671136254914
0.2662388002819560    0.2584101813420928    0.0735114071980354
0.7575219369427765    0.7520434361950891    0.0519371258089697
0.1166156868407593    0.8706912338099116    0.3154006137941122
0.6194464847832699    0.3708182560277088    0.3154279990897408
0.7961460360281351    0.8736885145165106    0.4665834451764437
0.2826326228700587    0.3886686633515661    0.4770913147007917
0.4547546107103048    0.8677382325499376    0.1524879628084773
0.9546103346540495    0.3665087629367442    0.1561396200795440
0.1251082391613405    0.1379388603678893    0.3167327000499662
0.6255766374855390    0.6369423988662869    0.3157727810733213
0.8018459378153815    0.1162880301027125    0.4765782194193381
0.3065024711990492    0.6277920475196630    0.4767471777479767
0.4561067508594661    0.1364283015461566    0.1520323836923644
0.9558955470263599    0.6337099278673842    0.1517146100187811
0.0045444972167634    0.2401028456310420    0.3169376373644525
0.5062220628233260    0.7409991765006757    0.3157605573353037
0.6605175350970940    0.2308629983820296    0.4779108600237653
0.1632778952426077    0.7551835238058785    0.4664961579952575
0.3409675976753551    0.2521890343131251    0.1527887977678868
0.8402722052746258    0.7489413225913096    0.1495984060196277
0.0004747564369538    0.9985638385256262    0.3852038931773374
0.4991637138943381    0.4988362331866834    0.3814659116716004
0.6891305250605946    0.0068639561685839    0.0508321863974039
0.1570503349473059    0.5022592961863593    0.0514429189922811
0.3331163968017803    0.0024191244518946    0.2130541053388574
0.8334935341260140    0.5003115317843830    0.2159387898511901
0.0100217951162367    0.9957852805499166    0.0696577124146582
0.5026813641274979    0.5191437528939317    0.0718303692932505
0.6674390836600590    0.9949077781725545    0.2272701147823337
0.1703815591950879    0.5013438082006342    0.2284289890217422
0.3327554689897868    0.0003336977675601    0.3896069984647130
0.8338084099654334    0.5015146728301724    0.3916249739465312
0.8683481068638421    0.6191490648358673    0.3171293179465724
0.3674207232671273    0.1225890335117864    0.3156569881428641
0.5358239693967985    0.6378428779928316    0.4722832929093842
0.0366989051895973    0.1448106976986404    0.4764910306819833
0.2022648101787271    0.6153546360287578    0.1511613371451358
0.7078444589771752    0.1151139318332918    0.1551849624333082
0.8770107860504781    0.8865650523667659    0.3167548712004283
0.3756858033726995    0.3909897403254156    0.3150093225739574
0.5499119222303678    0.8782304616195933    0.4766385827497751
0.0545351063743878    0.3821953495050291    0.4796840552593994
0.2027034474691623    0.8901192058101811    0.1491543280163136
0.7083006267088253    0.3853914728740981    0.1542112970421371
0.0875100427389192    0.0042701974830590    0.1528048735450181
0.5924717874586142    0.4975187752358802    0.1508459597585001
0.7569701853200852    0.9900280464784108    0.3173226799950648
0.2556220289325939    0.4931826980103790    0.3159061889126052
0.4138875978179317    0.9734602417764316    0.4774261808792545
0.9132170770913816    0.4740659407747222    0.4768816092881115
0.0827360672123424    0.7516904646220630    0.2144193936776450
0.5848896751041839    0.2503844086893702    0.2144138918282748
0.7492065542632949    0.7471143382398190    0.3823769447826781
0.2504250672748391    0.2514781549384115    0.3819577169092792
0.4216411276164442    0.7604261787319998    0.0502103806583322
0.9166502219147545    0.2658475529786517    0.0569262302627686
0.9158899152584935    0.7504015148882863    0.2250388219442168
0.4189949110855536    0.2520860833241287    0.2269303127409059
0.5845959170013592    0.7519484446362409    0.3895970827230067
0.0823732801732564    0.2503630196587900    0.3902415544394899
0.2467132950880859    0.7652081643131308    0.0710645224808752
0.7480718169697180    0.2566176209137980    0.0749403104730742
0.9556001258564191    0.8645142115184754    0.1500374081028200
0.4555292631849888    0.3675910547533842    0.1514837993384401
0.6181347501184897    0.8691464720438575    0.3151607877229342
0.1159147558662738    0.3700347813424240    0.3161232160430978
0.2826258224488318    0.8889609033109565    0.4769445236715414
0.7811516276780254    0.3905009133363636    0.4775972055607134
0.9556036570468945    0.1356176719025038    0.1525485369911869
0.4537670610909301    0.6368433591502238    0.1503327032474584
0.6276222051613387    0.1390031056397262    0.3159276492794741
0.1251587672188557    0.6386115107213665    0.3159441505264189
0.3063987945274900    0.1280760515557324    0.4770312898077981
0.8059255185728137    0.6294033367868188    0.4768130834477286
0.0048094900662908    0.7419696120854524    0.3156769534173063
0.5074873545022135    0.2419846156611696    0.3161375779811833
0.6571945521856760    0.7278158718553076    0.4785514602495175
0.1615242193642732    0.2545492377858043    0.4668337210345829
0.3391762277295032    0.7526134062324097    0.1496149788519559
0.8393821158182900    0.2484778085744087    0.1557351757460895
0.8336294552251562    0.9982307448331602    0.2151746096675400
0.3336131712800082    0.5013252004524815    0.2130243638365909
0.4999644479669431    0.9997702602356540    0.3815510229632951
0.0003882426237929    0.4997957003993925    0.3845028020705592
0.1617017668934564    0.0292659498732541    0.0443119873104807
0.6767371337079455    0.4956064226383028    0.0523594441463387
0.4980470505837992    0.5010536323839224    0.7752469091931791
0.9957424564345796    0.9983881300159023    0.7650765047212348
0.1673597192965067    0.4963823950812478    0.6085748007489387
0.6670262620141960    0.0033614313339758    0.6108005962570967
0.8423444423035846    0.4536997801140760    0.9437079796598221
0.3150033388556423    0.9811817445273514    0.9478880303196354
0.2107759025344688    0.3903083282537890    0.6843047739424504
0.7117604327043229    0.8907129783464389    0.6851636695180310
0.8882501952741743    0.3967744337657019    0.5223731381548408
0.3889324792319049    0.8949390322986325    0.5226233988882755
0.5384070300759605    0.3807870862236083    0.8463488079955085
0.0352098026681055    0.8863243730893232    0.8389054918796629
0.2029167278594309    0.1204828839738095    0.6817925153679214
0.7029412427435171    0.6218875183173834    0.6883427167826024
0.8482510422859129    0.1175949159242575    0.5239776962969215
0.3577057535481887    0.6297993273515092    0.5222435247299584