Cl32Li192P32S160
1.0
   20.5609999999999999    0.0000000000000000    0.0000000000000013
    0.0000000000000033   20.5609999999999999    0.0000000000000013
    0.0000000000000000    0.0000000000000000   20.5609999999999999
Li  P  S  Cl
192  32  160  32
Direct configuration=      1
0.0115753100000000    0.1249939200000000    0.1249939200000000
0.1249939200000000    0.4884003700000000    0.3749817600000000
0.4884003700000000    0.3749817600000000    0.1249939200000000
0.3749817600000000    0.0115753100000000    0.3749817600000000
0.0115753100000000    0.3749817600000000    0.3749817600000000
0.1249939200000000    0.0115753100000000    0.1249939200000000
0.4884003700000000    0.1249939200000000    0.3749817600000000
0.3749817600000000    0.4884003700000000    0.1249939200000000
0.3749817600000000    0.1249939200000000    0.4884003700000000
0.3749817599999998    0.3749817600000000    0.0115753100000000
0.1249939200000000    0.1249939200000000    0.0115753100000000
0.1249939200000000    0.3749817600000000    0.4884003700000000
0.2615631500000000    0.3749817600000000    0.1249939200000000
0.3749817599999998    0.2384125300000000    0.3749817600000000
0.2384125300000000    0.1249939200000000    0.1249939200000000
0.1249939200000000    0.2615631500000000    0.3749817600000000
0.2615631500000000    0.1249939200000000    0.3749817600000000
0.3749817599999998    0.2615631500000000    0.1249939200000000
0.2384125300000000    0.3749817600000000    0.3749817600000000
0.1249939200000000    0.2384125300000000    0.1249939200000000
0.1249939200000000    0.1249939200000000    0.2384125300000000
0.1249939200000000    0.3749817600000000    0.2615631500000000
0.3749817600000000    0.1249939200000000    0.2615631500000000
0.3749817599999998    0.3749817600000000    0.2384125300000000
0.0115753100000000    0.1249939200000000    0.6249696000000000
0.1249939200000000    0.4884003700000000    0.8750060800000000
0.4884003700000000    0.3749817600000000    0.6249695999999998
0.3749817600000000    0.0115753100000000    0.8750060799999998
0.0115753100000000    0.3749817600000000    0.8750060799999998
0.1249939200000000    0.0115753100000000    0.6249696000000000
0.4884003700000000    0.1249939200000000    0.8750060800000000
0.3749817600000000    0.4884003700000000    0.6249695999999998
0.3749817600000000    0.1249939200000000    0.9884246900000000
0.3749817599999998    0.3749817600000000    0.5115509899999998
0.1249939200000000    0.1249939200000000    0.5115509900000000
0.1249939200000000    0.3749817600000000    0.9884246900000000
0.2615631500000000    0.3749817600000000    0.6249695999999999
0.3749817599999998    0.2384125300000000    0.8750060800000000
0.2384125300000000    0.1249939200000000    0.6249696000000000
0.1249939200000000    0.2615631500000000    0.8750060799999998
0.2615631500000000    0.1249939200000000    0.8750060799999998
0.3749817599999998    0.2615631500000000    0.6249695999999999
0.2384125300000000    0.3749817600000000    0.8750060800000000
0.1249939200000000    0.2384125300000000    0.6249696000000000
0.1249939200000000    0.1249939200000000    0.7384368500000000
0.1249939200000000    0.3749817600000000    0.7615388400000001
0.3749817600000000    0.1249939200000000    0.7615388400000001
0.3749817599999998    0.3749817600000000    0.7384368499999999
0.0115753100000000    0.6249696000000000    0.1249939200000000
0.1249939200000000    0.9884246899999999    0.3749817600000000
0.4884003700000000    0.8750060800000000    0.1249939200000000
0.3749817600000000    0.5115509900000000    0.3749817599999999
0.0115753100000000    0.8750060800000000    0.3749817599999999
0.1249939200000000    0.5115509900000000    0.1249939200000000
0.4884003699999999    0.6249696000000000    0.3749817600000000
0.3749817600000000    0.9884246899999999    0.1249939200000000
0.3749817599999998    0.6249696000000000    0.4884003700000000
0.3749817599999998    0.8750060800000000    0.0115753100000000
0.1249939200000000    0.6249696000000000    0.0115753100000000
0.1249939200000000    0.8750060800000000    0.4884003700000000
0.2615631500000000    0.8750060800000000    0.1249939200000000
0.3749817600000000    0.7384368500000000    0.3749817600000000
0.2384125300000000    0.6249696000000000    0.1249939200000000
0.1249939200000000    0.7615388400000001    0.3749817599999999
0.2615631500000000    0.6249696000000000    0.3749817599999999
0.3749817600000000    0.7615388400000001    0.1249939200000000
0.2384125300000000    0.8750060800000000    0.3749817600000000
0.1249939200000000    0.7384368500000000    0.1249939200000000
0.1249939200000000    0.6249696000000000    0.2384125300000000
0.1249939200000000    0.8750060800000000    0.2615631500000000
0.3749817599999998    0.6249696000000000    0.2615631500000000
0.3749817599999998    0.8750060800000000    0.2384125300000000
0.0115753100000000    0.6249696000000000    0.6249695999999999
0.1249939200000000    0.9884246899999999    0.8750060800000000
0.4884003700000000    0.8750060800000000    0.6249696000000000
0.3749817600000000    0.5115509900000000    0.8750060800000000
0.0115753100000000    0.8750060800000000    0.8750060800000000
0.1249939200000000    0.5115509900000000    0.6249695999999999
0.4884003699999999    0.6249696000000000    0.8750060800000000
0.3749817600000000    0.9884246899999999    0.6249696000000000
0.3749817599999998    0.6249696000000000    0.9884246900000000
0.3749817599999998    0.8750060800000000    0.5115509900000000
0.1249939200000000    0.6249696000000000    0.5115509899999998
0.1249939200000000    0.8750060800000000    0.9884246900000000
0.2615631500000000    0.8750060800000000    0.6249696000000000
0.3749817600000000    0.7384368500000000    0.8750060800000000
0.2384125300000000    0.6249696000000000    0.6249695999999998
0.1249939200000000    0.7615388400000001    0.8750060800000000
0.2615631500000000    0.6249696000000000    0.8750060800000000
0.3749817600000000    0.7615388400000001    0.6249696000000000
0.2384125300000000    0.8750060800000000    0.8750060800000000
0.1249939200000000    0.7384368500000000    0.6249695999999998
0.1249939200000000    0.6249696000000000    0.7384368499999999
0.1249939200000000    0.8750060800000000    0.7615388399999998
0.3749817599999998    0.6249696000000000    0.7615388399999998
0.3749817599999998    0.8750060800000000    0.7384368499999998
0.5115509900000000    0.1249939200000000    0.1249939200000000
0.6249696000000000    0.4884003700000000    0.3749817600000000
0.9884246899999997    0.3749817600000000    0.1249939200000000
0.8750060800000000    0.0115753100000000    0.3749817599999999
0.5115509900000000    0.3749817600000000    0.3749817599999999
0.6249696000000000    0.0115753100000000    0.1249939200000000
0.9884246899999999    0.1249939200000000    0.3749817600000000
0.8750060799999998    0.4884003700000000    0.1249939200000000
0.8750060800000000    0.1249939200000000    0.4884003700000000
0.8750060799999998    0.3749817600000000    0.0115753100000000
0.6249696000000000    0.1249939200000000    0.0115753100000000
0.6249696000000000    0.3749817600000000    0.4884003700000000
0.7615388400000001    0.3749817600000000    0.1249939200000000
0.8750060800000000    0.2384125300000000    0.3749817600000000
0.7384368500000000    0.1249939200000000    0.1249939200000000
0.6249696000000000    0.2615631500000000    0.3749817599999999
0.7615388400000001    0.1249939200000000    0.3749817599999999
0.8750060800000000    0.2615631500000000    0.1249939200000000
0.7384368500000000    0.3749817600000000    0.3749817600000000
0.6249696000000000    0.2384125300000000    0.1249939200000000
0.6249696000000000    0.1249939200000000    0.2384125300000000
0.6249696000000000    0.3749817600000000    0.2615631500000000
0.8750060800000000    0.1249939200000000    0.2615631500000000
0.8750060799999998    0.3749817600000000    0.2384125300000000
0.5115509900000000    0.1249939200000000    0.6249695999999999
0.6249696000000000    0.4884003700000000    0.8750060800000000
0.9884246899999997    0.3749817600000000    0.6249696000000000
0.8750060800000000    0.0115753100000000    0.8750060800000000
0.5115509900000000    0.3749817600000000    0.8750060800000000
0.6249696000000000    0.0115753100000000    0.6249695999999999
0.9884246899999999    0.1249939200000000    0.8750060800000000
0.8750060799999998    0.4884003700000000    0.6249696000000000
0.8750060800000000    0.1249939200000000    0.9884246900000000
0.8750060799999998    0.3749817600000000    0.5115509900000000
0.6249696000000000    0.1249939200000000    0.5115509899999998
0.6249696000000000    0.3749817600000000    0.9884246900000000
0.7615388400000001    0.3749817600000000    0.6249696000000000
0.8750060800000000    0.2384125300000000    0.8750060800000000
0.7384368500000000    0.1249939200000000    0.6249695999999998
0.6249696000000000    0.2615631500000000    0.8750060800000000
0.7615388400000001    0.1249939200000000    0.8750060800000000
0.8750060800000000    0.2615631500000000    0.6249696000000000
0.7384368500000000    0.3749817600000000    0.8750060800000000
0.6249696000000000    0.2384125300000000    0.6249695999999998
0.6249696000000000    0.1249939200000000    0.7384368499999999
0.6249696000000000    0.3749817600000000    0.7615388399999998
0.8750060800000000    0.1249939200000000    0.7615388399999998
0.8750060799999998    0.3749817600000000    0.7384368499999998
0.5115509900000000    0.6249696000000000    0.1249939200000000
0.6249696000000000    0.9884246899999999    0.3749817599999999
0.9884246899999999    0.8750060800000000    0.1249939200000000
0.8750060799999998    0.5115509900000000    0.3749817600000000
0.5115509900000000    0.8750060800000000    0.3749817600000000
0.6249696000000000    0.5115509900000000    0.1249939200000000
0.9884246899999999    0.6249696000000000    0.3749817599999999
0.8750060800000000    0.9884246899999999    0.1249939200000000
0.8750060800000000    0.6249696000000000    0.4884003700000000
0.8750060800000000    0.8750060800000000    0.0115753100000000
0.6249696000000000    0.6249696000000000    0.0115753100000000
0.6249696000000000    0.8750060800000000    0.4884003700000000
0.7615388400000001    0.8750060800000000    0.1249939200000000
0.8750060800000000    0.7384368500000000    0.3749817599999999
0.7384368500000000    0.6249696000000000    0.1249939200000000
0.6249696000000000    0.7615388400000001    0.3749817600000000
0.7615388400000001    0.6249696000000000    0.3749817600000000
0.8750060800000000    0.7615388400000001    0.1249939200000000
0.7384368500000001    0.8750060800000000    0.3749817599999999
0.6249696000000000    0.7384368500000000    0.1249939200000000
0.6249696000000000    0.6249696000000000    0.2384125300000000
0.6249696000000000    0.8750060800000000    0.2615631500000000
0.8750060800000000    0.6249696000000000    0.2615631500000000
0.8750060800000000    0.8750060800000000    0.2384125300000000
0.5115509900000000    0.6249696000000000    0.6249696000000000
0.6249696000000000    0.9884246899999999    0.8750060800000000
0.9884246899999999    0.8750060800000000    0.6249696000000000
0.8750060799999998    0.5115509900000000    0.8750060799999998
0.5115509900000000    0.8750060800000000    0.8750060799999998
0.6249696000000000    0.5115509900000000    0.6249696000000000
0.9884246899999999    0.6249696000000000    0.8750060800000000
0.8750060800000000    0.9884246899999999    0.6249696000000000
0.8750060800000000    0.6249696000000000    0.9884246899999999
0.8750060800000000    0.8750060800000000    0.5115509900000000
0.6249696000000000    0.6249696000000000    0.5115509900000000
0.6249696000000000    0.8750060800000000    0.9884246899999999
0.7615388400000001    0.8750060800000000    0.6249696000000000
0.8750060800000000    0.7384368500000000    0.8750060800000000
0.7384368500000000    0.6249696000000000    0.6249696000000000
0.6249696000000000    0.7615388400000001    0.8750060799999998
0.7615388400000001    0.6249696000000000    0.8750060799999998
0.8750060800000000    0.7615388400000001    0.6249696000000000
0.7384368500000001    0.8750060800000000    0.8750060800000000
0.6249696000000000    0.7384368500000000    0.6249696000000000
0.6249696000000000    0.6249696000000000    0.7384368499999998
0.6249696000000000    0.8750060800000000    0.7615388400000001
0.8750060800000000    0.6249696000000000    0.7615388400000001
0.8750060800000000    0.8750060800000000    0.7384368500000000
0.0000000000000000    0.0000000000000000    0.2499878400000000
0.2499878400000000    0.0000000000000000    0.0000000000000000
0.0000000000000000    0.2499878400000000    0.0000000000000000
0.2499878400000000    0.2499878400000000    0.2499878400000000
0.0000000000000000    0.0000000000000000    0.7499635200000000
0.2499878400000000    0.0000000000000000    0.4999756799999999
0.0000000000000000    0.2499878400000000    0.4999756799999999
0.2499878400000000    0.2499878400000000    0.7499635199999999
0.0000000000000000    0.4999756799999999    0.2499878400000000
0.2499878400000000    0.4999756799999999    0.0000000000000000
0.0000000000000000    0.7499635200000000    0.0000000000000000
0.2499878400000000    0.7499635200000000    0.2499878400000000
0.0000000000000000    0.4999756799999999    0.7499635199999999
0.2499878400000000    0.4999756799999999    0.4999756799999999
0.0000000000000000    0.7499635200000000    0.4999756799999999
0.2499878400000000    0.7499635200000000    0.7499635200000000
0.4999756799999999    0.0000000000000000    0.2499878400000000
0.7499635200000000    0.0000000000000000    0.0000000000000000
0.4999756799999999    0.2499878400000000    0.0000000000000000
0.7499635200000000    0.2499878400000000    0.2499878400000000
0.4999756799999999    0.0000000000000000    0.7499635199999999
0.7499635200000000    0.0000000000000000    0.4999756799999999
0.4999756799999999    0.2499878400000000    0.4999756799999999
0.7499635200000000    0.2499878400000000    0.7499635200000000
0.4999756799999999    0.4999756799999999    0.2499878400000000
0.7499635199999999    0.4999756799999999    0.0000000000000000
0.4999756799999999    0.7499635200000000    0.0000000000000000
0.7499635199999999    0.7499635200000000    0.2499878400000000
0.4999756799999999    0.4999756799999999    0.7499635200000000
0.7499635199999999    0.4999756799999999    0.4999756799999999
0.4999756799999999    0.7499635200000000    0.4999756799999999
0.7499635199999999    0.7499635200000000    0.7499635200000000
0.0577792900000000    0.0577792900000000    0.3078157700000000
0.0577792900000000    0.4421963899999999    0.1922085500000000
0.4421963899999999    0.4421963899999999    0.3078157700000000
0.4421963899999999    0.0577792900000000    0.1922085500000000
0.3078157700000000    0.0577792900000000    0.0577792900000000
0.1922085500000000    0.0577792900000000    0.4421963899999999
0.3078157700000000    0.4421963899999999    0.4421963899999999
0.1922085500000000    0.4421963899999999    0.0577792900000000
0.0577792900000000    0.3078157700000000    0.0577792900000000
0.4421963899999999    0.1922085500000000    0.0577792900000000
0.4421963899999999    0.3078157700000000    0.4421963899999999
0.0577792900000000    0.1922085500000000    0.4421963899999999
0.3078157700000000    0.3078157700000000    0.3078157700000000
0.3078157700000000    0.1922085500000000    0.1922085500000000
0.1922085500000000    0.1922085500000000    0.3078157699999999
0.1922085500000000    0.3078157700000000    0.1922085500000000
0.1249939200000000    0.1249939200000000    0.1249939200000000
0.1249939200000000    0.3749817600000000    0.3749817600000000
0.3749817599999998    0.3749817600000000    0.1249939200000000
0.3749817600000000    0.1249939200000000    0.3749817600000000
0.0577792900000000    0.0577792900000000    0.8077914500000000
0.0577792900000000    0.4421963899999999    0.6921842300000000
0.4421963899999999    0.4421963899999999    0.8077914500000000
0.4421963899999999    0.0577792900000000    0.6921842300000000
0.3078157700000000    0.0577792900000000    0.5578036100000000
0.1922085500000000    0.0577792900000000    0.9421720699999998
0.3078157700000000    0.4421963899999999    0.9421720700000000
0.1922085500000000    0.4421963899999999    0.5578036100000000
0.0577792900000000    0.3078157700000000    0.5578036100000000
0.4421963899999999    0.1922085500000000    0.5578036100000000
0.4421963899999999    0.3078157700000000    0.9421720700000000
0.0577792900000000    0.1922085500000000    0.9421720699999998
0.3078157700000000    0.3078157700000000    0.8077914500000000
0.3078157700000000    0.1922085500000000    0.6921842300000000
0.1922085500000000    0.1922085500000000    0.8077914499999997
0.1922085500000000    0.3078157700000000    0.6921842300000000
0.1249939200000000    0.1249939200000000    0.6249696000000000
0.1249939200000000    0.3749817600000000    0.8750060799999998
0.3749817599999998    0.3749817600000000    0.6249695999999998
0.3749817600000000    0.1249939200000000    0.8750060799999998
0.0577792900000000    0.5578036100000000    0.3078157700000000
0.0577792900000000    0.9421720700000000    0.1922085500000000
0.4421963899999999    0.9421720700000000    0.3078157700000000
0.4421963899999999    0.5578036100000000    0.1922085500000000
0.3078157700000000    0.5578036100000000    0.0577792900000000
0.1922085500000000    0.5578036100000000    0.4421963899999999
0.3078157700000000    0.9421720700000000    0.4421963899999999
0.1922085500000000    0.9421720700000000    0.0577792900000000
0.0577792900000000    0.8077914500000000    0.0577792900000000
0.4421963899999999    0.6921842300000000    0.0577792900000000
0.4421963899999999    0.8077914500000000    0.4421963899999999
0.0577792900000000    0.6921842300000000    0.4421963899999999
0.3078157700000000    0.8077914500000000    0.3078157699999999
0.3078157700000000    0.6921842300000000    0.1922085500000000
0.1922085500000000    0.6921842300000000    0.3078157700000000
0.1922085500000000    0.8077914500000000    0.1922085500000000
0.1249939200000000    0.6249696000000000    0.1249939200000000
0.1249939200000000    0.8750060800000000    0.3749817599999999
0.3749817599999998    0.8750060800000000    0.1249939200000000
0.3749817599999998    0.6249696000000000    0.3749817599999999
0.0577792900000000    0.5578036100000000    0.8077914500000000
0.0577792900000000    0.9421720700000000    0.6921842299999997
0.4421963899999999    0.9421720700000000    0.8077914499999997
0.4421963899999999    0.5578036100000000    0.6921842299999997
0.3078157700000000    0.5578036100000000    0.5578036099999998
0.1922085500000000    0.5578036100000000    0.9421720700000000
0.3078157700000000    0.9421720700000000    0.9421720700000000
0.1922085500000000    0.9421720700000000    0.5578036100000000
0.0577792900000000    0.8077914500000000    0.5578036099999998
0.4421963899999999    0.6921842300000000    0.5578036100000000
0.4421963899999999    0.8077914500000000    0.9421720700000000
0.0577792900000000    0.6921842300000000    0.9421720700000000
0.3078157700000000    0.8077914500000000    0.8077914500000000
0.3078157700000000    0.6921842300000000    0.6921842299999997
0.1922085500000000    0.6921842300000000    0.8077914500000000
0.1922085500000000    0.8077914500000000    0.6921842299999997
0.1249939200000000    0.6249696000000000    0.6249695999999998
0.1249939200000000    0.8750060800000000    0.8750060800000000
0.3749817599999998    0.8750060800000000    0.6249696000000000
0.3749817599999998    0.6249696000000000    0.8750060800000000
0.5578036100000000    0.0577792900000000    0.3078157700000000
0.5578036100000000    0.4421963899999999    0.1922085500000000
0.9421720699999998    0.4421963899999999    0.3078157700000000
0.9421720700000000    0.0577792900000000    0.1922085500000000
0.8077914500000000    0.0577792900000000    0.0577792900000000
0.6921842300000000    0.0577792900000000    0.4421963899999999
0.8077914499999997    0.4421963899999999    0.4421963899999999
0.6921842300000000    0.4421963899999999    0.0577792900000000
0.5578036100000001    0.3078157700000000    0.0577792900000000
0.9421720700000000    0.1922085500000000    0.0577792900000000
0.9421720700000000    0.3078157700000000    0.4421963899999999
0.5578036100000000    0.1922085500000000    0.4421963899999999
0.8077914500000000    0.3078157700000000    0.3078157699999999
0.8077914500000000    0.1922085500000000    0.1922085500000000
0.6921842300000000    0.1922085500000000    0.3078157700000000
0.6921842300000001    0.3078157700000000    0.1922085500000000
0.6249696000000000    0.1249939200000000    0.1249939200000000
0.6249696000000000    0.3749817600000000    0.3749817599999999
0.8750060799999998    0.3749817600000000    0.1249939200000000
0.8750060800000000    0.1249939200000000    0.3749817599999999
0.5578036100000000    0.0577792900000000    0.8077914500000000
0.5578036100000000    0.4421963899999999    0.6921842299999997
0.9421720699999998    0.4421963899999999    0.8077914499999997
0.9421720700000000    0.0577792900000000    0.6921842299999997
0.8077914500000000    0.0577792900000000    0.5578036099999998
0.6921842300000000    0.0577792900000000    0.9421720700000000
0.8077914499999997    0.4421963899999999    0.9421720700000000
0.6921842300000000    0.4421963899999999    0.5578036100000000
0.5578036100000001    0.3078157700000000    0.5578036099999998
0.9421720700000000    0.1922085500000000    0.5578036100000000
0.9421720700000000    0.3078157700000000    0.9421720700000000
0.5578036100000000    0.1922085500000000    0.9421720700000000
0.8077914500000000    0.3078157700000000    0.8077914500000000
0.8077914500000000    0.1922085500000000    0.6921842299999997
0.6921842300000000    0.1922085500000000    0.8077914500000000
0.6921842300000001    0.3078157700000000    0.6921842299999997
0.6249696000000000    0.1249939200000000    0.6249695999999998
0.6249696000000000    0.3749817600000000    0.8750060800000000
0.8750060799999998    0.3749817600000000    0.6249696000000000
0.8750060800000000    0.1249939200000000    0.8750060800000000
0.5578036100000000    0.5578036100000000    0.3078157699999999
0.5578036100000001    0.9421720700000000    0.1922085500000000
0.9421720700000000    0.9421720700000000    0.3078157699999999
0.9421720700000000    0.5578036100000000    0.1922085500000000
0.8077914500000000    0.5578036100000000    0.0577792900000000
0.6921842300000000    0.5578036100000000    0.4421963899999999
0.8077914500000000    0.9421720700000000    0.4421963900000001
0.6921842300000001    0.9421720700000000    0.0577792900000000
0.5578036100000001    0.8077914500000000    0.0577792900000000
0.9421720700000000    0.6921842300000000    0.0577792900000000
0.9421720700000000    0.8077914500000000    0.4421963900000001
0.5578036100000000    0.6921842300000000    0.4421963899999999
0.8077914500000000    0.8077914500000000    0.3078157700000000
0.8077914500000000    0.6921842300000000    0.1922085500000000
0.6921842300000000    0.6921842300000000    0.3078157700000000
0.6921842300000001    0.8077914500000000    0.1922085500000000
0.6249696000000000    0.6249696000000000    0.1249939200000000
0.6249696000000000    0.8750060800000000    0.3749817600000000
0.8750060800000000    0.8750060800000000    0.1249939200000000
0.8750060800000000    0.6249696000000000    0.3749817600000000
0.5578036100000000    0.5578036100000000    0.8077914500000000
0.5578036100000001    0.9421720700000000    0.6921842300000000
0.9421720700000000    0.9421720700000000    0.8077914500000000
0.9421720700000000    0.5578036100000000    0.6921842300000000
0.8077914500000000    0.5578036100000000    0.5578036100000000
0.6921842300000000    0.5578036100000000    0.9421720700000000
0.8077914500000000    0.9421720700000000    0.9421720700000000
0.6921842300000001    0.9421720700000000    0.5578036100000000
0.5578036100000001    0.8077914500000000    0.5578036100000000
0.9421720700000000    0.6921842300000000    0.5578036100000000
0.9421720700000000    0.8077914500000000    0.9421720700000000
0.5578036100000000    0.6921842300000000    0.9421720700000000
0.8077914500000000    0.8077914500000000    0.8077914500000000
0.8077914500000000    0.6921842300000000    0.6921842300000000
0.6921842300000000    0.6921842300000000    0.8077914499999997
0.6921842300000001    0.8077914500000000    0.6921842300000000
0.6249696000000000    0.6249696000000000    0.6249696000000000
0.6249696000000000    0.8750060800000000    0.8750060799999998
0.8750060800000000    0.8750060800000000    0.6249696000000000
0.8750060800000000    0.6249696000000000    0.8750060799999998
0.0000000000000000    0.0000000000000000    0.0000000000000000
0.2499878400000000    0.2499878400000000    0.0000000000000000
0.2499878400000000    0.0000000000000000    0.2499878400000000
0.0000000000000000    0.2499878400000000    0.2499878400000000
0.0000000000000000    0.0000000000000000    0.4999756799999999
0.2499878400000000    0.2499878400000000    0.4999756799999999
0.2499878400000000    0.0000000000000000    0.7499635200000000
0.0000000000000000    0.2499878400000000    0.7499635200000000
0.0000000000000000    0.4999756799999999    0.0000000000000000
0.2499878400000000    0.7499635200000000    0.0000000000000000
0.2499878400000000    0.4999756799999999    0.2499878400000000
0.0000000000000000    0.7499635200000000    0.2499878400000000
0.0000000000000000    0.4999756799999999    0.4999756799999999
0.2499878400000000    0.7499635200000000    0.4999756799999999
0.2499878400000000    0.4999756799999999    0.7499635200000000
0.0000000000000000    0.7499635200000000    0.7499635200000000
0.4999756799999999    0.0000000000000000    0.0000000000000000
0.7499635200000000    0.2499878400000000    0.0000000000000000
0.7499635200000000    0.0000000000000000    0.2499878400000000
0.4999756799999999    0.2499878400000000    0.2499878400000000
0.4999756799999999    0.0000000000000000    0.4999756799999999
0.7499635200000000    0.2499878400000000    0.4999756799999999
0.7499635200000000    0.0000000000000000    0.7499635200000000
0.4999756799999999    0.2499878400000000    0.7499635200000000
0.4999756799999999    0.4999756799999999    0.0000000000000000
0.7499635199999999    0.7499635200000000    0.0000000000000000
0.7499635199999999    0.4999756799999999    0.2499878400000000
0.4999756799999999    0.7499635200000000    0.2499878400000000
0.4999756799999999    0.4999756799999999    0.4999756799999999
0.7499635199999999    0.7499635200000000    0.4999756799999999
0.7499635199999999    0.4999756799999999    0.7499635200000000
0.4999756799999999    0.7499635200000000    0.7499635200000000
Direct configuration=      2
0.0092919122418781    0.1251783232432201    0.1241368253493204
0.1183221160631418    0.4926843275531352    0.3650440849457399
0.4852580952316236    0.3822634977061376    0.1124676943507366
0.3659948595165638    0.0078214650511660    0.3677687536192838
0.0084447589990442    0.3723070325583773    0.3677309070628962
0.1346094093150425    0.0080470650133194    0.1393020713661983
0.4947038503726555    0.1339251466123929    0.3614696819238231
0.3625940148315807    0.4863503800732429    0.1154703700468047
0.3887165696097595    0.1079203972397690    0.4873174248956124
0.3738679546272490    0.3808985855174915    0.0057202933502732
0.1338911818369097    0.1287669145344749    0.0067326692659776
0.1295976886305360    0.3841290952494865    0.4836451477976355
0.2618140232863228    0.3568676530237722    0.1145420795302378
0.3696277602138316    0.2360779984962562    0.3775997419725923
0.2355267868116067    0.1200427304603501    0.1331283611378984
0.1265350617440906    0.2707314168293878    0.3802225180489705
0.2574923194726930    0.1191200674291559    0.3763627316721646
0.3669675469555493    0.2616639369540346    0.1257855613199377
0.2427237507905076    0.3792964645785549    0.3689543619474824
0.1165935035651028    0.2283848288189802    0.1258837758960291
0.1410830438071420    0.1078967383701853    0.2450455525120403
0.1088203971541032    0.3617374173914120    0.2586231785138857
0.3840513027123553    0.1184136119656769    0.2637621250396175
0.3820194674971912    0.3826582115020246    0.2382405909190462
0.0122057154378680    0.1318390759404980    0.6335518141648998
0.1294711094775124    0.4832824882154768    0.8524217544854937
0.4826391045899134    0.3738991449733383    0.6371212380179770
0.3903463280227270    0.0128199113815619    0.8763539225496655
0.0075231641246169    0.3808963269218222    0.8671885963935022
0.1142515026866955    0.0099800278290292    0.6170822064154853
0.4987468239299316    0.1328612179452899    0.8721288138216804
0.3843536994036913    0.4830346611318803    0.6329147339628183
0.3820640297256537    0.1147460227808227    0.9841832812015407
0.3725405852437562    0.3620946382737473    0.5156240279023594
0.1189025429370018    0.1220443936081472    0.5054967066296483
0.1233310986668837    0.3800251363334476    0.9902225807821341
0.2658510732340829    0.3846975703300161    0.6269937381980217
0.3722703597495702    0.2384436095760010    0.8685833083858476
0.2376306120194814    0.1235907107502749    0.6249064806176300
0.1210875961860312    0.2577959381775170    0.8626011027700553
0.2589188522194415    0.1340221683305093    0.8663791593053782
0.3737428188130684    0.2660229794685692    0.6290524342151724
0.2348795200470150    0.3676545081376380    0.8937147609044036
0.1284584508198342    0.2438681539119733    0.6292447775206268
0.1178653255070408    0.1276658437513597    0.7452623891514452
0.1253383246580597    0.3745606096742968    0.7561076332155052
0.3775361357557477    0.1245567489194571    0.7685553915846791
0.3622048401403186    0.3801990248638255    0.7382896486638568
0.0177214109360083    0.6312711532861531    0.1303611284413224
0.1330037316567176    0.9862483853490462    0.3648142831092483
0.4909743268878855    0.8731599999366654    0.1304918205046241
0.3686021334471438    0.5180950688052974    0.3715640451022336
0.0162998929423868    0.8747007270507823    0.3741084607677772
0.1249446611389349    0.5058876336688353    0.1199758823852478
0.4883713689992953    0.6267713127503209    0.3735914551193493