Cl32Li192P32S160
1.0
   20.5609999999999999    0.0000000000000000    0.0000000000000013
    0.0000000000000033   20.5609999999999999    0.0000000000000013
    0.0000000000000000    0.0000000000000000   20.5609999999999999
Li  P  S  Cl
192  32  160  32
Direct configuration=      1
0.0115753100000000    0.1249939200000000    0.1249939200000000
0.1249939200000000    0.4884003700000000    0.3749817600000000
0.4884003700000000    0.3749817600000000    0.1249939200000000
0.3749817600000000    0.0115753100000000    0.3749817600000000
0.0115753100000000    0.3749817600000000    0.3749817600000000
0.1249939200000000    0.0115753100000000    0.1249939200000000
0.4884003700000000    0.1249939200000000    0.3749817600000000
0.3749817600000000    0.4884003700000000    0.1249939200000000
0.3749817600000000    0.1249939200000000    0.4884003700000000
0.3749817599999998    0.3749817600000000    0.0115753100000000
0.1249939200000000    0.1249939200000000    0.0115753100000000
0.1249939200000000    0.3749817600000000    0.4884003700000000
0.2615631500000000    0.3749817600000000    0.1249939200000000
0.3749817599999998    0.2384125300000000    0.3749817600000000
0.2384125300000000    0.1249939200000000    0.1249939200000000
0.1249939200000000    0.2615631500000000    0.3749817600000000
0.2615631500000000    0.1249939200000000    0.3749817600000000
0.3749817599999998    0.2615631500000000    0.1249939200000000
0.2384125300000000    0.3749817600000000    0.3749817600000000
0.1249939200000000    0.2384125300000000    0.1249939200000000
0.1249939200000000    0.1249939200000000    0.2384125300000000
0.1249939200000000    0.3749817600000000    0.2615631500000000
0.3749817600000000    0.1249939200000000    0.2615631500000000
0.3749817599999998    0.3749817600000000    0.2384125300000000
0.0115753100000000    0.1249939200000000    0.6249696000000000
0.1249939200000000    0.4884003700000000    0.8750060800000000
0.4884003700000000    0.3749817600000000    0.6249695999999998
0.3749817600000000    0.0115753100000000    0.8750060799999998
0.0115753100000000    0.3749817600000000    0.8750060799999998
0.1249939200000000    0.0115753100000000    0.6249696000000000
0.4884003700000000    0.1249939200000000    0.8750060800000000
0.3749817600000000    0.4884003700000000    0.6249695999999998
0.3749817600000000    0.1249939200000000    0.9884246900000000
0.3749817599999998    0.3749817600000000    0.5115509899999998
0.1249939200000000    0.1249939200000000    0.5115509900000000
0.1249939200000000    0.3749817600000000    0.9884246900000000
0.2615631500000000    0.3749817600000000    0.6249695999999999
0.3749817599999998    0.2384125300000000    0.8750060800000000
0.2384125300000000    0.1249939200000000    0.6249696000000000
0.1249939200000000    0.2615631500000000    0.8750060799999998
0.2615631500000000    0.1249939200000000    0.8750060799999998
0.3749817599999998    0.2615631500000000    0.6249695999999999
0.2384125300000000    0.3749817600000000    0.8750060800000000
0.1249939200000000    0.2384125300000000    0.6249696000000000
0.1249939200000000    0.1249939200000000    0.7384368500000000
0.1249939200000000    0.3749817600000000    0.7615388400000001
0.3749817600000000    0.1249939200000000    0.7615388400000001
0.3749817599999998    0.3749817600000000    0.7384368499999999
0.0115753100000000    0.6249696000000000    0.1249939200000000
0.1249939200000000    0.9884246899999999    0.3749817600000000
0.4884003700000000    0.8750060800000000    0.1249939200000000
0.3749817600000000    0.5115509900000000    0.3749817599999999
0.0115753100000000    0.8750060800000000    0.3749817599999999
0.1249939200000000    0.5115509900000000    0.1249939200000000
0.4884003699999999    0.6249696000000000    0.3749817600000000
0.3749817600000000    0.9884246899999999    0.1249939200000000
0.3749817599999998    0.6249696000000000    0.4884003700000000
0.3749817599999998    0.8750060800000000    0.0115753100000000
0.1249939200000000    0.6249696000000000    0.0115753100000000
0.1249939200000000    0.8750060800000000    0.4884003700000000
0.2615631500000000    0.8750060800000000    0.1249939200000000
0.3749817600000000    0.7384368500000000    0.3749817600000000
0.2384125300000000    0.6249696000000000    0.1249939200000000
0.1249939200000000    0.7615388400000001    0.3749817599999999
0.2615631500000000    0.6249696000000000    0.3749817599999999
0.3749817600000000    0.7615388400000001    0.1249939200000000
0.2384125300000000    0.8750060800000000    0.3749817600000000
0.1249939200000000    0.7384368500000000    0.1249939200000000
0.1249939200000000    0.6249696000000000    0.2384125300000000
0.1249939200000000    0.8750060800000000    0.2615631500000000
0.3749817599999998    0.6249696000000000    0.2615631500000000
0.3749817599999998    0.8750060800000000    0.2384125300000000
0.0115753100000000    0.6249696000000000    0.6249695999999999
0.1249939200000000    0.9884246899999999    0.8750060800000000
0.4884003700000000    0.8750060800000000    0.6249696000000000
0.3749817600000000    0.5115509900000000    0.8750060800000000
0.0115753100000000    0.8750060800000000    0.8750060800000000
0.1249939200000000    0.5115509900000000    0.6249695999999999
0.4884003699999999    0.6249696000000000    0.8750060800000000
0.3749817600000000    0.9884246899999999    0.6249696000000000
0.3749817599999998    0.6249696000000000    0.9884246900000000
0.3749817599999998    0.8750060800000000    0.5115509900000000
0.1249939200000000    0.6249696000000000    0.5115509899999998
0.1249939200000000    0.8750060800000000    0.9884246900000000
0.2615631500000000    0.8750060800000000    0.6249696000000000
0.3749817600000000    0.7384368500000000    0.8750060800000000
0.2384125300000000    0.6249696000000000    0.6249695999999998
0.1249939200000000    0.7615388400000001    0.8750060800000000
0.2615631500000000    0.6249696000000000    0.8750060800000000
0.3749817600000000    0.7615388400000001    0.6249696000000000
0.2384125300000000    0.8750060800000000    0.8750060800000000
0.1249939200000000    0.7384368500000000    0.6249695999999998
0.1249939200000000    0.6249696000000000    0.7384368499999999
0.1249939200000000    0.8750060800000000    0.7615388399999998
0.3749817599999998    0.6249696000000000    0.7615388399999998
0.3749817599999998    0.8750060800000000    0.7384368499999998
0.5115509900000000    0.1249939200000000    0.1249939200000000
0.6249696000000000    0.4884003700000000    0.3749817600000000
0.9884246899999997    0.3749817600000000    0.1249939200000000
0.8750060800000000    0.0115753100000000    0.3749817599999999
0.5115509900000000    0.3749817600000000    0.3749817599999999
0.6249696000000000    0.0115753100000000    0.1249939200000000
0.9884246899999999    0.1249939200000000    0.3749817600000000
0.8750060799999998    0.4884003700000000    0.1249939200000000
0.8750060800000000    0.1249939200000000    0.4884003700000000
0.8750060799999998    0.3749817600000000    0.0115753100000000
0.6249696000000000    0.1249939200000000    0.0115753100000000
0.6249696000000000    0.3749817600000000    0.4884003700000000
0.7615388400000001    0.3749817600000000    0.1249939200000000
0.8750060800000000    0.2384125300000000    0.3749817600000000
0.7384368500000000    0.1249939200000000    0.1249939200000000
0.6249696000000000    0.2615631500000000    0.3749817599999999
0.7615388400000001    0.1249939200000000    0.3749817599999999
0.8750060800000000    0.2615631500000000    0.1249939200000000
0.7384368500000000    0.3749817600000000    0.3749817600000000
0.6249696000000000    0.2384125300000000    0.1249939200000000
0.6249696000000000    0.1249939200000000    0.2384125300000000
0.6249696000000000    0.3749817600000000    0.2615631500000000
0.8750060800000000    0.1249939200000000    0.2615631500000000
0.8750060799999998    0.3749817600000000    0.2384125300000000
0.5115509900000000    0.1249939200000000    0.6249695999999999
0.6249696000000000    0.4884003700000000    0.8750060800000000
0.9884246899999997    0.3749817600000000    0.6249696000000000
0.8750060800000000    0.0115753100000000    0.8750060800000000
0.5115509900000000    0.3749817600000000    0.8750060800000000
0.6249696000000000    0.0115753100000000    0.6249695999999999
0.9884246899999999    0.1249939200000000    0.8750060800000000
0.8750060799999998    0.4884003700000000    0.6249696000000000
0.8750060800000000    0.1249939200000000    0.9884246900000000
0.8750060799999998    0.3749817600000000    0.5115509900000000
0.6249696000000000    0.1249939200000000    0.5115509899999998
0.6249696000000000    0.3749817600000000    0.9884246900000000
0.7615388400000001    0.3749817600000000    0.6249696000000000
0.8750060800000000    0.2384125300000000    0.8750060800000000
0.7384368500000000    0.1249939200000000    0.6249695999999998
0.6249696000000000    0.2615631500000000    0.8750060800000000
0.7615388400000001    0.1249939200000000    0.8750060800000000
0.8750060800000000    0.2615631500000000    0.6249696000000000
0.7384368500000000    0.3749817600000000    0.8750060800000000
0.6249696000000000    0.2384125300000000    0.6249695999999998
0.6249696000000000    0.1249939200000000    0.7384368499999999
0.6249696000000000    0.3749817600000000    0.7615388399999998
0.8750060800000000    0.1249939200000000    0.7615388399999998
0.8750060799999998    0.3749817600000000    0.7384368499999998
0.5115509900000000    0.6249696000000000    0.1249939200000000
0.6249696000000000    0.9884246899999999    0.3749817599999999
0.9884246899999999    0.8750060800000000    0.1249939200000000
0.8750060799999998    0.5115509900000000    0.3749817600000000
0.5115509900000000    0.8750060800000000    0.3749817600000000
0.6249696000000000    0.5115509900000000    0.1249939200000000
0.9884246899999999    0.6249696000000000    0.3749817599999999
0.8750060800000000    0.9884246899999999    0.1249939200000000
0.8750060800000000    0.6249696000000000    0.4884003700000000
0.8750060800000000    0.8750060800000000    0.0115753100000000
0.6249696000000000    0.6249696000000000    0.0115753100000000
0.6249696000000000    0.8750060800000000    0.4884003700000000
0.7615388400000001    0.8750060800000000    0.1249939200000000
0.8750060800000000    0.7384368500000000    0.3749817599999999
0.7384368500000000    0.6249696000000000    0.1249939200000000
0.6249696000000000    0.7615388400000001    0.3749817600000000
0.7615388400000001    0.6249696000000000    0.3749817600000000
0.8750060800000000    0.7615388400000001    0.1249939200000000
0.7384368500000001    0.8750060800000000    0.3749817599999999
0.6249696000000000    0.7384368500000000    0.1249939200000000
0.6249696000000000    0.6249696000000000    0.2384125300000000
0.6249696000000000    0.8750060800000000    0.2615631500000000
0.8750060800000000    0.6249696000000000    0.2615631500000000
0.8750060800000000    0.8750060800000000    0.2384125300000000
0.5115509900000000    0.6249696000000000    0.6249696000000000
0.6249696000000000    0.9884246899999999    0.8750060800000000
0.9884246899999999    0.8750060800000000    0.6249696000000000
0.8750060799999998    0.5115509900000000    0.8750060799999998
0.5115509900000000    0.8750060800000000    0.8750060799999998
0.6249696000000000    0.5115509900000000    0.6249696000000000
0.9884246899999999    0.6249696000000000    0.8750060800000000
0.8750060800000000    0.9884246899999999    0.6249696000000000
0.8750060800000000    0.6249696000000000    0.9884246899999999
0.8750060800000000    0.8750060800000000    0.5115509900000000
0.6249696000000000    0.6249696000000000    0.5115509900000000
0.6249696000000000    0.8750060800000000    0.9884246899999999
0.7615388400000001    0.8750060800000000    0.6249696000000000
0.8750060800000000    0.7384368500000000    0.8750060800000000
0.7384368500000000    0.6249696000000000    0.6249696000000000
0.6249696000000000    0.7615388400000001    0.8750060799999998
0.7615388400000001    0.6249696000000000    0.8750060799999998
0.8750060800000000    0.7615388400000001    0.6249696000000000
0.7384368500000001    0.8750060800000000    0.8750060800000000
0.6249696000000000    0.7384368500000000    0.6249696000000000
0.6249696000000000    0.6249696000000000    0.7384368499999998
0.6249696000000000    0.8750060800000000    0.7615388400000001
0.8750060800000000    0.6249696000000000    0.7615388400000001
0.8750060800000000    0.8750060800000000    0.7384368500000000
0.0000000000000000    0.0000000000000000    0.2499878400000000
0.2499878400000000    0.0000000000000000    0.0000000000000000
0.0000000000000000    0.2499878400000000    0.0000000000000000
0.2499878400000000    0.2499878400000000    0.2499878400000000
0.0000000000000000    0.0000000000000000    0.7499635200000000
0.2499878400000000    0.0000000000000000    0.4999756799999999
0.0000000000000000    0.2499878400000000    0.4999756799999999
0.2499878400000000    0.2499878400000000    0.7499635199999999
0.0000000000000000    0.4999756799999999    0.2499878400000000
0.2499878400000000    0.4999756799999999    0.0000000000000000
0.0000000000000000    0.7499635200000000    0.0000000000000000
0.2499878400000000    0.7499635200000000    0.2499878400000000
0.0000000000000000    0.4999756799999999    0.7499635199999999
0.2499878400000000    0.4999756799999999    0.4999756799999999
0.0000000000000000    0.7499635200000000    0.4999756799999999
0.2499878400000000    0.7499635200000000    0.7499635200000000
0.4999756799999999    0.0000000000000000    0.2499878400000000
0.7499635200000000    0.0000000000000000    0.0000000000000000
0.4999756799999999    0.2499878400000000    0.0000000000000000
0.7499635200000000    0.2499878400000000    0.2499878400000000
0.4999756799999999    0.0000000000000000    0.7499635199999999
0.7499635200000000    0.0000000000000000    0.4999756799999999
0.4999756799999999    0.2499878400000000    0.4999756799999999
0.7499635200000000    0.2499878400000000    0.7499635200000000
0.4999756799999999    0.4999756799999999    0.2499878400000000
0.7499635199999999    0.4999756799999999    0.0000000000000000
0.4999756799999999    0.7499635200000000    0.0000000000000000
0.7499635199999999    0.7499635200000000    0.2499878400000000
0.4999756799999999    0.4999756799999999    0.7499635200000000
0.7499635199999999    0.4999756799999999    0.4999756799999999
0.4999756799999999    0.7499635200000000    0.4999756799999999
0.7499635199999999    0.7499635200000000    0.7499635200000000
0.0577792900000000    0.0577792900000000    0.3078157700000000
0.0577792900000000    0.4421963899999999    0.1922085500000000
0.4421963899999999    0.4421963899999999    0.3078157700000000
0.4421963899999999    0.0577792900000000    0.1922085500000000
0.3078157700000000    0.0577792900000000    0.0577792900000000
0.1922085500000000    0.0577792900000000    0.4421963899999999
0.3078157700000000    0.4421963899999999    0.4421963899999999
0.1922085500000000    0.4421963899999999    0.0577792900000000
0.0577792900000000    0.3078157700000000    0.0577792900000000
0.4421963899999999    0.1922085500000000    0.0577792900000000
0.4421963899999999    0.3078157700000000    0.4421963899999999
0.0577792900000000    0.1922085500000000    0.4421963899999999
0.3078157700000000    0.3078157700000000    0.3078157700000000
0.3078157700000000    0.1922085500000000    0.1922085500000000
0.1922085500000000    0.1922085500000000    0.3078157699999999
0.1922085500000000    0.3078157700000000    0.1922085500000000
0.1249939200000000    0.1249939200000000    0.1249939200000000
0.1249939200000000    0.3749817600000000    0.3749817600000000
0.3749817599999998    0.3749817600000000    0.1249939200000000
0.3749817600000000    0.1249939200000000    0.3749817600000000
0.0577792900000000    0.0577792900000000    0.8077914500000000
0.0577792900000000    0.4421963899999999    0.6921842300000000
0.4421963899999999    0.4421963899999999    0.8077914500000000
0.4421963899999999    0.0577792900000000    0.6921842300000000
0.3078157700000000    0.0577792900000000    0.5578036100000000
0.1922085500000000    0.0577792900000000    0.9421720699999998
0.3078157700000000    0.4421963899999999    0.9421720700000000
0.1922085500000000    0.4421963899999999    0.5578036100000000
0.0577792900000000    0.3078157700000000    0.5578036100000000
0.4421963899999999    0.1922085500000000    0.5578036100000000
0.4421963899999999    0.3078157700000000    0.9421720700000000
0.0577792900000000    0.1922085500000000    0.9421720699999998
0.3078157700000000    0.3078157700000000    0.8077914500000000
0.3078157700000000    0.1922085500000000    0.6921842300000000
0.1922085500000000    0.1922085500000000    0.8077914499999997
0.1922085500000000    0.3078157700000000    0.6921842300000000
0.1249939200000000    0.1249939200000000    0.6249696000000000
0.1249939200000000    0.3749817600000000    0.8750060799999998
0.3749817599999998    0.3749817600000000    0.6249695999999998
0.3749817600000000    0.1249939200000000    0.8750060799999998
0.0577792900000000    0.5578036100000000    0.3078157700000000
0.0577792900000000    0.9421720700000000    0.1922085500000000
0.4421963899999999    0.9421720700000000    0.3078157700000000
0.4421963899999999    0.5578036100000000    0.1922085500000000
0.3078157700000000    0.5578036100000000    0.0577792900000000
0.1922085500000000    0.5578036100000000    0.4421963899999999
0.3078157700000000    0.9421720700000000    0.4421963899999999
0.1922085500000000    0.9421720700000000    0.0577792900000000
0.0577792900000000    0.8077914500000000    0.0577792900000000
0.4421963899999999    0.6921842300000000    0.0577792900000000
0.4421963899999999    0.8077914500000000    0.4421963899999999
0.0577792900000000    0.6921842300000000    0.4421963899999999
0.3078157700000000    0.8077914500000000    0.3078157699999999
0.3078157700000000    0.6921842300000000    0.1922085500000000
0.1922085500000000    0.6921842300000000    0.3078157700000000
0.1922085500000000    0.8077914500000000    0.1922085500000000
0.1249939200000000    0.6249696000000000    0.1249939200000000
0.1249939200000000    0.8750060800000000    0.3749817599999999
0.3749817599999998    0.8750060800000000    0.1249939200000000
0.3749817599999998    0.6249696000000000    0.3749817599999999
0.0577792900000000    0.5578036100000000    0.8077914500000000
0.0577792900000000    0.9421720700000000    0.6921842299999997
0.4421963899999999    0.9421720700000000    0.8077914499999997
0.4421963899999999    0.5578036100000000    0.6921842299999997
0.3078157700000000    0.5578036100000000    0.5578036099999998
0.1922085500000000    0.5578036100000000    0.9421720700000000
0.3078157700000000    0.9421720700000000    0.9421720700000000
0.1922085500000000    0.9421720700000000    0.5578036100000000
0.0577792900000000    0.8077914500000000    0.5578036099999998
0.4421963899999999    0.6921842300000000    0.5578036100000000
0.4421963899999999    0.8077914500000000    0.9421720700000000
0.0577792900000000    0.6921842300000000    0.9421720700000000
0.3078157700000000    0.8077914500000000    0.8077914500000000
0.3078157700000000    0.6921842300000000    0.6921842299999997
0.1922085500000000    0.6921842300000000    0.8077914500000000
0.1922085500000000    0.8077914500000000    0.6921842299999997
0.1249939200000000    0.6249696000000000    0.6249695999999998
0.1249939200000000    0.8750060800000000    0.8750060800000000
0.3749817599999998    0.8750060800000000    0.6249696000000000
0.3749817599999998    0.6249696000000000    0.8750060800000000
0.5578036100000000    0.0577792900000000    0.3078157700000000
0.5578036100000000    0.4421963899999999    0.1922085500000000
0.9421720699999998    0.4421963899999999    0.3078157700000000
0.9421720700000000    0.0577792900000000    0.1922085500000000
0.8077914500000000    0.0577792900000000    0.0577792900000000
0.6921842300000000    0.0577792900000000    0.4421963899999999
0.8077914499999997    0.4421963899999999    0.4421963899999999
0.6921842300000000    0.4421963899999999    0.0577792900000000
0.5578036100000001    0.3078157700000000    0.0577792900000000
0.9421720700000000    0.1922085500000000    0.0577792900000000
0.9421720700000000    0.3078157700000000    0.4421963899999999
0.5578036100000000    0.1922085500000000    0.4421963899999999
0.8077914500000000    0.3078157700000000    0.3078157699999999
0.8077914500000000    0.1922085500000000    0.1922085500000000
0.6921842300000000    0.1922085500000000    0.3078157700000000
0.6921842300000001    0.3078157700000000    0.1922085500000000
0.6249696000000000    0.1249939200000000    0.1249939200000000
0.6249696000000000    0.3749817600000000    0.3749817599999999
0.8750060799999998    0.3749817600000000    0.1249939200000000
0.8750060800000000    0.1249939200000000    0.3749817599999999
0.5578036100000000    0.0577792900000000    0.8077914500000000
0.5578036100000000    0.4421963899999999    0.6921842299999997
0.9421720699999998    0.4421963899999999    0.8077914499999997
0.9421720700000000    0.0577792900000000    0.6921842299999997
0.8077914500000000    0.0577792900000000    0.5578036099999998
0.6921842300000000    0.0577792900000000    0.9421720700000000
0.8077914499999997    0.4421963899999999    0.9421720700000000
0.6921842300000000    0.4421963899999999    0.5578036100000000
0.5578036100000001    0.3078157700000000    0.5578036099999998
0.9421720700000000    0.1922085500000000    0.5578036100000000
0.9421720700000000    0.3078157700000000    0.9421720700000000
0.5578036100000000    0.1922085500000000    0.9421720700000000
0.8077914500000000    0.3078157700000000    0.8077914500000000
0.8077914500000000    0.1922085500000000    0.6921842299999997
0.6921842300000000    0.1922085500000000    0.8077914500000000
0.6921842300000001    0.3078157700000000    0.6921842299999997
0.6249696000000000    0.1249939200000000    0.6249695999999998
0.6249696000000000    0.3749817600000000    0.8750060800000000
0.8750060799999998    0.3749817600000000    0.6249696000000000
0.8750060800000000    0.1249939200000000    0.8750060800000000
0.5578036100000000    0.5578036100000000    0.3078157699999999
0.5578036100000001    0.9421720700000000    0.1922085500000000
0.9421720700000000    0.9421720700000000    0.3078157699999999
0.9421720700000000    0.5578036100000000    0.1922085500000000
0.8077914500000000    0.5578036100000000    0.0577792900000000
0.6921842300000000    0.5578036100000000    0.4421963899999999
0.8077914500000000    0.9421720700000000    0.4421963900000001
0.6921842300000001    0.9421720700000000    0.0577792900000000
0.5578036100000001    0.8077914500000000    0.0577792900000000
0.9421720700000000    0.6921842300000000    0.0577792900000000
0.9421720700000000    0.8077914500000000    0.4421963900000001
0.5578036100000000    0.6921842300000000    0.4421963899999999
0.8077914500000000    0.8077914500000000    0.3078157700000000
0.8077914500000000    0.6921842300000000    0.1922085500000000
0.6921842300000000    0.6921842300000000    0.3078157700000000
0.6921842300000001    0.8077914500000000    0.1922085500000000
0.6249696000000000    0.6249696000000000    0.1249939200000000
0.6249696000000000    0.8750060800000000    0.3749817600000000
0.8750060800000000    0.8750060800000000    0.1249939200000000
0.8750060800000000    0.6249696000000000    0.3749817600000000
0.5578036100000000    0.5578036100000000    0.8077914500000000
0.5578036100000001    0.9421720700000000    0.6921842300000000
0.9421720700000000    0.9421720700000000    0.8077914500000000
0.9421720700000000    0.5578036100000000    0.6921842300000000
0.8077914500000000    0.5578036100000000    0.5578036100000000
0.6921842300000000    0.5578036100000000    0.9421720700000000
0.8077914500000000    0.9421720700000000    0.9421720700000000
0.6921842300000001    0.9421720700000000    0.5578036100000000
0.5578036100000001    0.8077914500000000    0.5578036100000000
0.9421720700000000    0.6921842300000000    0.5578036100000000
0.9421720700000000    0.8077914500000000    0.9421720700000000
0.5578036100000000    0.6921842300000000    0.9421720700000000
0.8077914500000000    0.8077914500000000    0.8077914500000000
0.8077914500000000    0.6921842300000000    0.6921842300000000
0.6921842300000000    0.6921842300000000    0.8077914499999997
0.6921842300000001    0.8077914500000000    0.6921842300000000
0.6249696000000000    0.6249696000000000    0.6249696000000000
0.6249696000000000    0.8750060800000000    0.8750060799999998
0.8750060800000000    0.8750060800000000    0.6249696000000000
0.8750060800000000    0.6249696000000000    0.8750060799999998
0.0000000000000000    0.0000000000000000    0.0000000000000000
0.2499878400000000    0.2499878400000000    0.0000000000000000
0.2499878400000000    0.0000000000000000    0.2499878400000000
0.0000000000000000    0.2499878400000000    0.2499878400000000
0.0000000000000000    0.0000000000000000    0.4999756799999999
0.2499878400000000    0.2499878400000000    0.4999756799999999
0.2499878400000000    0.0000000000000000    0.7499635200000000
0.0000000000000000    0.2499878400000000    0.7499635200000000
0.0000000000000000    0.4999756799999999    0.0000000000000000
0.2499878400000000    0.7499635200000000    0.0000000000000000
0.2499878400000000    0.4999756799999999    0.2499878400000000
0.0000000000000000    0.7499635200000000    0.2499878400000000
0.0000000000000000    0.4999756799999999    0.4999756799999999
0.2499878400000000    0.7499635200000000    0.4999756799999999
0.2499878400000000    0.4999756799999999    0.7499635200000000
0.0000000000000000    0.7499635200000000    0.7499635200000000
0.4999756799999999    0.0000000000000000    0.0000000000000000
0.7499635200000000    0.2499878400000000    0.0000000000000000
0.7499635200000000    0.0000000000000000    0.2499878400000000
0.4999756799999999    0.2499878400000000    0.2499878400000000
0.4999756799999999    0.0000000000000000    0.4999756799999999
0.7499635200000000    0.2499878400000000    0.4999756799999999
0.7499635200000000    0.0000000000000000    0.7499635200000000
0.4999756799999999    0.2499878400000000    0.7499635200000000
0.4999756799999999    0.4999756799999999    0.0000000000000000
0.7499635199999999    0.7499635200000000    0.0000000000000000
0.7499635199999999    0.4999756799999999    0.2499878400000000
0.4999756799999999    0.7499635200000000    0.2499878400000000
0.4999756799999999    0.4999756799999999    0.4999756799999999
0.7499635199999999    0.7499635200000000    0.4999756799999999
0.7499635199999999    0.4999756799999999    0.7499635200000000
0.4999756799999999    0.7499635200000000    0.7499635200000000
Direct configuration=      2
0.0094978446739861    0.1251720633097408    0.1241984664694981
0.1188261054340788    0.4923565011774739    0.3657922415854490
0.4854658461055240    0.3817221842787978    0.1134043416561639
0.3666590075959575    0.0081303071220813    0.3683031140413746
0.0086837593366540    0.3725261889916328    0.3682603458529679
0.1339017352444219    0.0083460151600157    0.1382506309004646
0.4942063651868497    0.1332150652591257    0.3624416581721530
0.3635169006060796    0.4865674588141920    0.1161824826932704
0.3877054528962499    0.1091845704044329    0.4873540788660051
0.3738968727165237    0.3804978628093911    0.0061814607877476
0.1332378555442113    0.1284596433472769    0.0071030417893859
0.1292248756578578    0.3834249403156761    0.4839760495923435
0.2617994784325325    0.3582107381223044    0.1153477815505164
0.3699930914967321    0.2362607196617968    0.3773670342299303
0.2357045845054923    0.1204048924542212    0.1325273773346797
0.1264393589129817    0.2700975059923464    0.3797999943304685
0.2578366137921576    0.1195245144366357    0.3762803625370352
0.3675565091163742    0.2616825346826788    0.1257194078082585
0.2423595723450383    0.3789893475432902    0.3693963559288987
0.1172727062728441    0.2290661315028131    0.1258600748697063
0.1398961814229484    0.1091522627906581    0.2444750364103427
0.1100080427900975    0.3627337622794686    0.2588863674986107
0.3833507293233891    0.1189379348794147    0.2636707032479360
0.3814794089908374    0.3820839230320597    0.2382846434315132
0.0122071797067569    0.1313340300850109    0.6329118425484879
0.1291016515790505    0.4837034531910393    0.8540846510138242
0.4830394216452250    0.3739638381385973    0.6361995211588940
0.3892522493581572    0.0126082614799436    0.8761686913738894
0.0077524612215523    0.3805502639019961    0.8676664273751616
0.1150481957978731    0.0101559973424775    0.6176618276190246
0.4978776403730123    0.1322597090940045    0.8723273530054808
0.3836458252921068    0.4834036847745000    0.6323206522890200
0.3815440008868486    0.1155009272320846    0.9844685138206232
0.3727217733131081    0.3630568514110594    0.5153502814792862
0.1193525502019131    0.1222585598173731    0.5060001211086573
0.1234572246354633    0.3796428198075666    0.9900469834069398
0.2655685516283303    0.3839547967919257    0.6268682326262196
0.3724647901271571    0.2384387638589884    0.8690568866502144
0.2376553318531246    0.1236917034766108    0.6249124088699789
0.1214346788814258    0.2580403268985519    0.8634915453811037
0.2590417983071069    0.1333796623355720    0.8670020675528418
0.3738396565094101    0.2657308951304143    0.6287432936065922
0.2351537017473911    0.3681987019581134    0.8923270516129738
0.1282410523798747    0.2434845321514096    0.6289704231699838
0.1183772302030034    0.1274342397503136    0.7447156535996449
0.1253314310896325    0.3745851569655117    0.7565417793648676
0.3773222842883409    0.1245995301086637    0.7681129125749897
0.3631732323593552    0.3798262215176753    0.7382633739758350
0.0172666820283984    0.6308374758279198    0.1299171448131897
0.1324134043178569    0.9863864875726814    0.3655710211543499
0.4907703959532024    0.8733030632659687    0.1300973417779223
0.3690630006761248    0.5176383083420429    0.3718224642095015
0.0159829104427670    0.8747185231791257    0.3741801632695468
0.1249700997374544    0.5063258094835817    0.1203407298157964
0.4883455080575512    0.6266369491953719    0.3737011765096094