Cl48Li287P48S240
1.0
   25.1819793006824639    0.0000000000000000    0.0000000000000015
   -0.0000000000000009   14.5388225279766061    0.0000000000000009
    0.0000000000000000    0.0000000000000000   37.2126966544236950
Li  P  S  Cl
287  48  240  48
Direct configuration=      1
0.0397131383745423    0.1139983623727576    0.1881209969059952
0.5378369740071163    0.6238206910335856    0.1883228073966894
0.7158217376134719    0.1143369661639257    0.3523813784381880
0.2164962776201549    0.6288423921834091    0.3440289360574328
0.3401853675583726    0.1903968086512411    0.0451671217756221
0.8388814803061105    0.6359043067437798    0.0289981676745696
0.0133334670972307    0.2455595106539244    0.2524768705174792
0.5059176051146840    0.7069745388911951    0.2521393284881461
0.6714089326290085    0.1707621654906525    0.4151751915284534
0.1693692424276270    0.6717629439449079    0.4106395433004230
0.3470875499764758    0.3203015896307729    0.0971871707194768
0.8410921486299072    0.7580770904397839    0.0929722406615948
0.1262337537145424    0.3621944796010438    0.2505842870509853
0.6137738501499140    0.8674917338538440    0.2528824094991288
0.7533367083247275    0.4100905545463328    0.4136161906945101
0.2582120764856711    0.9030909406845592    0.4097629971819816
0.4757708401831357    0.3424992962393177    0.1024953368453583
0.9590586946920162    0.8514033474032474    0.0865597513570836
0.1737673202915847    0.2535454016750828    0.1881766281966650
0.6719076424528555    0.7496656175347067    0.1901862676354497
0.8259209041609037    0.2605432591975207    0.3453958904188776
0.3330718159879090    0.7637413349725622    0.3474569847439927
0.5028478117945798    0.2937180455465614    0.0301670084561495
0.0187252531515052    0.6994237728639260    0.0187284574991707
0.1310700748597019    0.1407071615654877    0.2496932811498271
0.6336536330664607    0.6493806995679071    0.2524208534971201
0.8305253632126588    0.1710438928700131    0.4129802092258934
0.3244604939434329    0.6728143292668330    0.4133635331596205
0.4370754432761664    0.1228962025898563    0.0878747682136615
0.9494403009900046    0.6211407413918801    0.0886600131356456
0.0396843687801012    0.3847620630630390    0.1894130264703971
0.5315118621571804    0.8774903553051939    0.1911522875459041
0.7049857383451383    0.3578029773677099    0.3469855403458489
0.2025825358638233    0.8669312148660333    0.3465305140773857
0.4228453208274076    0.4270476250172098    0.0461682657236703
0.8649127116347277    0.8705564067123964    0.0251295542899269
0.9676072535991153    0.8767246885995658    0.3479667513261209
0.4615507530369717    0.3589001099317469    0.3503392767073876
0.5789490351695448    0.9125120936171506    0.0545368425940018
0.0852062799886041    0.4212597398512825    0.0415958437241499
0.2929729345431263    0.8640200513567072    0.1856067844284223
0.7882898657433355    0.3683233981674398    0.1932657543819805
0.9205701129655833    0.9212067668560262    0.4132194411817183
0.4222411189138965    0.4180384762964262    0.4153510754265154
0.5939325715625066    0.0700244271431936    0.0939416805697918
0.1007799577746767    0.5614598790586784    0.0913468558916311
0.2600328593329203    0.9627757479972509    0.2494821075809811
0.7593411247941134    0.5146838214400823    0.2543690666291203
0.0014715517242206    0.1599365168395753    0.4132876477407061
0.5386164188475970    0.6186009671138336    0.4082086220520953
0.7231250015923700    0.0894402807755651    0.0966295022074243
0.2223164397239250    0.6005109481935507    0.0887204886385239
0.3669400386119108    0.1121419088774234    0.2507470161934096
0.8765461204619261    0.6083500793321562    0.2525536746694337
0.0821529946221474    0.0165054308064755    0.3496829560437618
0.5657608072417341    0.5009343230201736    0.3339085645751673
0.7492809426129954    0.9138691678557528    0.0510986394691056
0.2711370813124713    0.5169603333182766    0.0152907273369275
0.4169280884448958    0.0040879255939578    0.1826485461010246
0.9235234799843327    0.4935990150376784    0.1919667498668653
0.0783196800303809    0.9198019381141277    0.4127219507211203
0.5849659185662687    0.4146307212827899    0.4069905444727128
0.6762240041412620    0.8575086053656202    0.0984471050940382
0.1973815586137192    0.3762529337222770    0.0898229492745056
0.3963421043715745    0.9107105914379597    0.2468219472428484
0.8548882929678097    0.3634013100332307    0.2528518984446500
0.9511023730725719    0.1184453075612968    0.3511210982140599
0.4485929101083202    0.6186670264793773    0.3559952046897425
0.6710635489451425    0.1231191177019310    0.0220968167067730
0.1494127886248146    0.6304002855953509    0.0241178662105889
0.2869087437179018    0.1366454844352257    0.1919422107808207
0.7866824532507009    0.6290305184795499    0.1908719872749981
0.0384167161680144    0.6149724089374352    0.1887773451108329
0.5336102080241617    0.1058481905420292    0.1929206336188250
0.7121077004006817    0.6146025192109154    0.3558682157205503
0.2150024679158026    0.1229650030171839    0.3453120789994048
0.4162178129515667    0.6005932396512506    0.0181526516488805
0.8278188295645241    0.1445852916547478    0.0376445000868870
0.0090116040216389    0.7534213937100818    0.2499115638391966
0.5078387244257965    0.2383603994629890    0.2557036208619507
0.6808947978603220    0.6739875866185471    0.4243800187515231
0.1710873726374828    0.1698684375919058    0.4117115910353509
0.3470281803701445    0.7172641154501788    0.0803637605630489
0.8469019235500465    0.2314114322385953    0.0996050096320271
0.1194908711637909    0.8640085680162761    0.2498732030958235
0.7510073425585184    0.9089528773594351    0.4146123141442744
0.2689686021257931    0.3937798733896631    0.4102787248539586
0.4493671320408418    0.8676994284151675    0.0850290202191890
0.9606869861025891    0.3504683904322224    0.0867368888323427
0.1733091519746571    0.7553394984662564    0.1867057496609346
0.6539486619091925    0.2521273395585253    0.1844330124920293
0.8288046608528715    0.7606611029062681    0.3479192920250319
0.3203971453711559    0.2604171446813908    0.3391943862265018
0.5111453431751378    0.7881618390490095    0.0192353586625767
0.0206493056835335    0.1948553998901306    0.0068863579005167
0.1207488081353753    0.6381552169223539    0.2494457311521816
0.6267045249906097    0.1486379963730782    0.2557081087629965
0.8341423377498709    0.6713427019200988    0.4148294376845905
0.3302639249490326    0.1717251841545859    0.4107015059364612
0.4791257879189029    0.6532177769015420    0.0850032144197668
0.9523437363538474    0.1272088434180556    0.0840924697543441
0.0386418194018339    0.8835948210651392    0.1859083619775735
0.5450337376076194    0.3749804536686981    0.1968898816515164
0.7032722524080505    0.8580405589810145    0.3507264034944080
0.1992344250641921    0.3720684962175141    0.3514294564256097
0.3869952614706579    0.9221017810184050    0.0113774409474910
0.8245903490132230    0.3374075631391115    0.0441637790799767
0.7909108830409826    0.8621486780090183    0.1933837330058953
0.2867699671638716    0.3710115560653518    0.1931705775160404
0.4613144497035696    0.8677261299643569    0.3490492495858993
0.9677160204523888    0.3768042527416952    0.3452370047630547
0.1311626908948754    0.8083029474645202    0.9989869879468400
0.6213405207541923    0.3462046394294323    0.0291263673072495
0.7581769564508436    0.9819216894795749    0.2540856396405364
0.2606259209053553    0.5203292346872965    0.2529436365083518
0.4135049608991795    0.9175003706471119    0.4146583426312863
0.9207052599763208    0.4291194747392384    0.4108332277065946
0.1002538390007255    0.0132874822560738    0.0847030710504048
0.5913390053229031    0.4547448248116757    0.1010276596745129
0.8537186560975375    0.1361224504303364    0.2523201211088645
0.3916319831416490    0.6006470605703940    0.2506796365255463
0.4995841328574664    0.1574272251653757    0.4140203748930357
0.9958207948004687    0.6562513975803630    0.4119372011255583
0.2296261235574115    0.1042110924025503    0.0936198158647893
0.7125088189750279    0.5905763043385917    0.0865199975614714
0.9216024462264056    0.0033440121760803    0.1888732443255908
0.4193550696281402    0.5129984147149349    0.1869008599100884
0.5835360347151916    0.0072321031600431    0.3535893165328613
0.0851222557863017    0.5154618583180109    0.3492644921739516
0.2676287661200836    0.0500062527566888    0.0212678026738269
0.7300243714922791    0.4341754067844236    0.0180771016725981
0.8863423239275703    0.9033912525865520    0.2533258382339484
0.3705606036533782    0.3881869996332562    0.2512321300988975
0.5547953950208728    0.8956900795755066    0.4157782205220881
0.0778683033484888    0.4201667078033630    0.4121285771801808
0.2077634597580421    0.8847280714649510    0.0829208441457189
0.7104273990651703    0.3692514735588449    0.0947106424023193
0.7889578811113104    0.1317564341015827    0.1929650683630763
0.2922514851153779    0.6419894243479812    0.1896142741892580
0.4539374261656460    0.1057567811434376    0.3469178514938465
0.9583785756419382    0.6072446203051792    0.3420766192548985
0.1567191826825887    0.1735715771867303    0.0374483680871530
0.5822874813517596    0.5692913553739709    0.0431179037209981
0.3713456537442997    0.8873787676350855    0.8092590926228111
0.8712453982473430    0.3839283937449638    0.8089437243258162
0.0435703794353967    0.8488425970322365    0.6590723487077759
0.5315566078716487    0.3710297608850688    0.6501115626614653
0.7096864859289017    0.8747884221248979    0.9789671841428544
0.1727971014552312    0.3195154393101519    0.9764707098279796
0.3400519049541591    0.7649982299067766    0.7478149076373196
0.8423875124239490    0.2567478060863514    0.7464608140884932
0.0077165260201351    0.6702854108015288    0.5866768524913980
0.5048625104616793    0.1781872018853633    0.5866105410569874
0.6528971069089839    0.7482403787390730    0.9165096017740707
0.1609244773836694    0.2663210824399636    0.9072183893703673
0.4520237699050791    0.6448090344032961    0.7454381131745283
0.9624863026701806    0.1416019996557207    0.7481848046158265
0.1589994795589317    0.6701880814290717    0.5855071080392750
0.6643205454000781    0.1862871505260051    0.5901194764806846
0.7797145547613756    0.6412996863040769    0.9036519353589705
0.2976247993962401    0.1190409561867043    0.9170340474007094
0.5074264990276717    0.7531025201564332    0.8052821185443935
0.0047634287151401    0.2530354347195183    0.8107213961426324
0.1687253973473714    0.7573797197946994    0.6495880502232643
0.6504553664133237    0.2620571482472535    0.6609718585613519
0.8348494350421688    0.7205325932247859    0.9557588860397401
0.3224703320176771    0.2719477014094485    0.9712388635824449
0.4534774191311496    0.8724616527557197    0.7478487348771542
0.9565353383314273    0.3638298870171445    0.7482530636389728
0.0780053451730972    0.9007665728403992    0.5883092485903976
0.5795676834316059    0.4062215333211696    0.5862351869688873
0.7855661770807894    0.9015401150739517    0.9128791093668952
0.2654947109110262    0.3975618867306015    0.9167716335086342
0.3717516012501567    0.6152066626622229    0.8062464277134367
0.8726538917950902    0.1118526847459885    0.8051457315628389
0.0497658420904513    0.6128957555394768    0.6496335072004185
0.5454776389543458    0.1229266382332557    0.6502747492427318
0.7485200952057937    0.6169722999708769    0.9728043043400416
0.1744784778943962    0.1267618753439964    0.9537194063952196
0.2889392450471352    0.1291445660442207    0.6499746448679496
0.7867872530426875    0.6175191832048131    0.6527770906514759
0.9217938606899981    0.0852273111885165    0.9655863306958761
0.5097568093937452    0.6242374620273325    0.9704884309747983
0.6211905433742749    0.1346761922176145    0.8098552631350013
0.1217124706843663    0.6336897528266171    0.8124938428051860
0.2602912267142133    0.9195566988434961    0.5893077517585013
0.7922719865732381    0.3951759761500591    0.5756971170601287
0.9140944620749729    0.9777875353021773    0.9068348115527944
0.4103966792046205    0.5406751592292550    0.9197593315121579
0.5912350231649592    0.0167740773152781    0.7460043243326052
0.0913391223468113    0.5075148803536090    0.7495684233828704
0.4087738927823281    0.9324926484631758    0.5868684350830269
0.9125375978659831    0.4290693894249774    0.5906918709751021
0.0539694809315851    0.8777398689851396    0.9164224356955041
0.5486107210487280    0.3803859406287212    0.9012274369943343
0.7014164312628088    0.8927891995041194    0.7454707952844918
0.2048143597026570    0.3867236084254103    0.7496950467879062
0.4181031695234570    0.0212204442108976    0.6501792301784437
0.9094885393771032    0.5119732112798787    0.6588531679681686
0.0706800449012533    0.0494125741569434    0.9714678311813166
0.5769341152597135    0.4420191970220552    0.9653004431167391
0.7570228007008867    0.9991251341687285    0.8064497234285136
0.2552946772050038    0.4955402466182781    0.8108231761159784
0.3017910542395388    0.1159904445231349    0.5744864519058536
0.8303711579051942    0.6482643278095039    0.5861154402318901
0.0388516892218367    0.1267875337874903    0.9085775059157918
0.5294541629203070    0.6385044407071024    0.9028124784627289
0.7000288815434927    0.1256413564021980    0.7480666756021398
0.2042395151996623    0.6140687973530166    0.7494170142121391
0.3033013466959643    0.8936539676565628    0.6612478323024108
0.7949350411155174    0.3753542858792711    0.6524272372171795
0.9693995135843694    0.8898716397922803    0.9752256828723814
0.4623912413590408    0.3796971330815851    0.9644551148272568
0.6223319932722758    0.8681508433242067    0.8066083235273060
0.1186031157783928    0.3669053864326077    0.8098022350815972
0.3701640410514294    0.3839942334883087    0.8134215348945536
0.8712828816034008    0.8817458348158208    0.8099651349008025
0.0408514083279053    0.3628786652130483    0.6545185209572956
0.5383394850177958    0.8825623191553577    0.6457851378174231
0.6855472008684047    0.3211424425975088    0.9641840171820496
0.2302486299090075    0.8748479532453609    0.9711027375754016
0.3399918876431430    0.2654145219792682    0.7484003587183320
0.8398223766029395    0.7588810164158705    0.7484328185141295
0.0090254936316823    0.1679107439397018    0.5873818914205281
0.5050851360970506    0.6728010413207866    0.5944639935063724
0.6708852978299680    0.2357807780272205    0.9056812143243520
0.1623104064872386    0.7503025895046288    0.9143418789459072
0.4467093434109680    0.1382916781173401    0.7472170953731361
0.9569293655283682    0.6381336280754870    0.7481929162226771
0.1590393452287898    0.1704575275148993    0.5864142468228420
0.6500159828273201    0.6633384744819490    0.5890302905509304
0.8110776556684879    0.1486991464001698    0.9018415712896565
0.3048502792273459    0.6374558980080878    0.9056107375004457
0.5066929332869419    0.2459837878109473    0.8058542572344374
0.0063606085054442    0.7503962808066942    0.8102486533063027
0.1686697843485822    0.2610560069299077    0.6498378616502405
0.6693873144141993    0.7680290302247867    0.6505090111452182
0.8331992657703271    0.2542623893693263    0.9705277167632420
0.3185768937053210    0.6848027673793740    0.9733339742701980
0.4477833188907954    0.3698673639947348    0.7485710980423257
0.9511818092645631    0.8666472734009821    0.7478873247452997
0.0820458330150355    0.4006929588837106    0.5868054536198611
0.5787942766282146    0.8398983824329872    0.5670082140698026
0.7801148440580664    0.4136591312069354    0.9188414063758535
0.3080164247218061    0.8699821886681656    0.9126301559238444
0.3676887361703298    0.1201241034476088    0.8095512123518183
0.8717163680239119    0.6142179430612743    0.8073631646049274
0.0513423272017442    0.1263971412194242    0.6547259117971290
0.5543575489919473    0.6432594524947786    0.6631087215656164
0.7552263833371378    0.1108960166320981    0.9639427232545106
0.2276231242272132    0.5928220152920204    0.9540813272164975
0.1204981660598113    0.1352172222092813    0.8074289144403871
0.6231454546990824    0.6392267816392395    0.8072852641246083
0.7872966954092664    0.1165111649029975    0.6514849107921111
0.2901680644930110    0.6311033438534582    0.6506291322118741
0.4289792285374195    0.0750960882219490    0.9736887141455390
0.9372550515657080    0.6065368584128499    0.9746953869062702
0.0927902802641415    0.9964322741629277    0.7476244422999883
0.5880613605303476    0.5061721130957216    0.7467030165274544
0.7579333634807108    0.9232489226096611    0.5873739087104339
0.2603225198055038    0.4162480422769186    0.5907136221900785
0.4159178279125674    0.0020274097920762    0.9080977010536810
0.9067483973703986    0.5157605645562544    0.9095909270792507
0.2073105711666932    0.8906185563054486    0.7481607576286829
0.7030083504706743    0.3926603258718032    0.7449761788927745
0.9123068823791705    0.9296958029097150    0.5866668279640067
0.4078832407596486    0.4301440209748145    0.5866800167702074
0.5493877563855289    0.8945510818789447    0.9038038486103046
0.0338981087361245    0.3682259349978581    0.9158711524228256
0.2550994787847896    0.0011519684070937    0.8119634394449967
0.7561732705786336    0.4985477042336817    0.8058416884829824
0.9135437129611984    0.0111190175009271    0.6540163457266867
0.4163628327400134    0.5185362632978819    0.6512427472764037
0.5726137443711193    0.9552898027345796    0.9736723208227489
0.0780319038075993    0.5505576468020668    0.9618703807747527
0.2095410159811129    0.1103107713982287    0.7483912860982329
0.7007748969774626    0.6201959463101001    0.7460942270165210
0.8338514554894310    0.1527515592506863    0.5866810700797932
0.3001301648012462    0.6149274936806738    0.5754448118231408
0.5428114143500881    0.1475429099043448    0.9213812074296737
0.0198011215939001    0.6473995288939515    0.9128190703972037
0.1223136106280246    0.8638821268648900    0.8096489415196128
0.6220247767877651    0.3660110595689053    0.8053309320775446
0.8007560917616934    0.8713106252561597    0.6512758462131455
0.3037127429785721    0.3961807303552171    0.6633176634187284
0.4727211814709331    0.8336151658496953    0.9459961714220614
0.9560461980876848    0.3966467358297826    0.9817659824271698
0.9895668580946839    0.0230268731145106    0.0170898268122069
0.5035675579356986    0.4858428897072317    0.0131405602041404
0.6649591457557426    0.0013815309453784    0.1768195101707950
0.1690217259768710    0.5035862873834716    0.1716616016815754
0.3335955280395430    0.0004479422079876    0.3330800563670714
0.8336066876567344    0.5000459903283435    0.3365626272347815
0.9159431047982526    0.7480004707219307    0.1725126099696642
0.4176081314587096    0.2540902822276385    0.1763334542778544
0.5843911989986843    0.7464934305953650    0.3358079165036259
0.0839413691161032    0.2507974048816318    0.3349709784071079
0.2302827674528317    0.7267724931431618    0.0100232029353349
0.7507030861014687    0.2455008821437537    0.0129816452733932
0.1686122300837725    0.9996238606321508    0.1701685893541822
0.6672904241338378    0.4997595601057924    0.1773740315927537
0.8339124185048284    0.9984219763083859    0.3371598328355596
0.3352093650727041    0.5011360217253866    0.3347560344830923
0.4927535403819547    0.9674181045195888    0.0183285127145149
0.0123525622822811    0.5255028605885245    0.0158465776402878
0.9193566078034214    0.2492441155585943    0.1738348204442321
0.4165929849768977    0.7517193356897828    0.1678558543948238
0.5845178071444400    0.2450339404349542    0.3385821792205704
0.0829318361957179    0.7524961603764094    0.3342707544151128
0.2491086996174419    0.2284144956680409    0.0172561742466796
0.7694107445394677    0.7676420392380757    0.0168837038976678
0.3234630465980712    0.0007618291842140    0.4999395708735568
0.8459525126864323    0.4857377231274027    0.5004814672078061
0.0012519751190492    0.9980003748347754    0.8278225391032452
0.4970950042383305    0.5047076019882811    0.8244526335325612
0.6689668530054752    0.0075132648687985    0.6621253700932874
0.1676291344951753    0.4991096614664414    0.6652694214054240
0.2490384009769676    0.2504665937010053    0.8306970510722010
0.7468140321371572    0.7548851842959551    0.8272440544116607
0.9183890389807053    0.2500511297688603    0.6634258834252025
0.4187599728325822    0.7610707399171703    0.6634258031642443
0.5831901731213347    0.2620820877611796    0.4995860423095355
0.0813687322281275    0.7459961474212751    0.4988182169268960
0.4999854468764927    0.0074177818219923    0.8269764427751202
0.9986769495404139    0.5003764464022548    0.8306320869403370
0.1670826239133033    0.9985370144879360    0.6637669020334445
0.6637678935446593    0.5017649453548438    0.6617266419533807
0.8311172499232670    0.9994551887741226    0.4999575829887115
0.3184728385553116    0.4959593856216394    0.5006665705784343
0.2504572009385769    0.7519725080370373    0.8287264159007814
0.7509005982549904    0.2569838561567001    0.8253671899125008
0.9183331931171781    0.7497821673094290    0.6634403750923865
0.4165624192955307    0.2581364207631962    0.6637282124939493
0.5548868824024751    0.7160419343973228    0.5015275819884596
0.0843243825953653    0.2458606671133362    0.4993147924165754
0.1684101163591496    0.9956277480309194    0.2261928200894518
0.6694694339562680    0.5026829198912195    0.2319632861515818
0.8343425671743018    0.0000475662560826    0.3924766342418863
0.3377244221024589    0.5033142124578935    0.3899425040144797
0.5041280174444392    0.0027787430893633    0.0740471035719135
0.0101831450025645    0.4988057974307214    0.0733358151394258
0.8671308854638013    0.1184988128030859    0.3178923920360242
0.3696117882357939    0.6191711114046543    0.3150302030641561
0.5323113028249493    0.1518710554094814    0.4786217593445311
0.0290997416610465    0.6397572548539409    0.4756400804183801
0.2066890498914471    0.1186144732691595    0.1545394501705903
0.7036566522419972    0.6107787191853694    0.1530546712706816
0.8760320346953442    0.3880646987308213    0.3175796702473351
0.3764249346805150    0.8912756752061891    0.3129181367866700
0.5566608726043104    0.3891783005966484    0.4739451171998813
0.0542200074277207    0.8790930238662101    0.4767122072446418
0.2080324536616188    0.3877961815187253    0.1537755127595897
0.7066405327393248    0.8890134770406422    0.1581463109016487
0.2561651070978750    0.9921201856740581    0.3144946949102883
0.7561281142989527    0.4923250259144010    0.3187093991334639
0.9111394999785977    0.9741102427107833    0.4772151285022257
0.4006040569761958    0.4731216706760697    0.4776122729285140
0.5891405142224371    0.9974519852796643    0.1564137616751632
0.0925266810873236    0.5021566549543004    0.1527459701980336
0.0861320003294219    0.2494692578631500    0.2142441432884552
0.5823793402512023    0.7502220950870995    0.2163975992214650
0.7506706343055551    0.2487127759604684    0.3846101079102925
0.2483598053828695    0.7502610816873494    0.3806704190706570
0.4198405084235784    0.2702195782538515    0.0607798577528601
0.9125865505997099    0.7375040682613375    0.0502362509469969
0.9242157066352166    0.2481059561875899    0.2292418654752982
0.4144399442752509    0.7543534638590133    0.2233277327473063
0.5834109556031892    0.2426787208442036    0.3941412238375687
0.0823481340000969    0.7506526355537193    0.3895076501372082
0.2611378546709522    0.2578825771461166    0.0743472728889679
0.7482122694147543    0.7504577014190890    0.0729110121773402
0.1162238305973530    0.8732362713781028    0.3155072956219278
0.6176462303705450    0.3624263131219031    0.3189119233777718
0.7785304767322594    0.8900733028543641    0.4789356012469885
0.2775898163161936    0.3918105580454957    0.4727426405124167
0.4544439185785417    0.8679617102495869    0.1490520412054693
0.9559900510812233    0.3642819138517971    0.1530800268093108
0.1262864360132638    0.1395196560270511    0.3154653981993767
0.6257614368085421    0.6331941557435453    0.3174593209293473
0.8040439692335637    0.1326337224694708    0.4767690022104916
0.2980669311878265    0.6301982096168458    0.4759601047403195
0.4552679305926981    0.1424368182330537    0.1536133714699126
0.9532368827220551    0.6315386694092102    0.1539218225541341
0.0065379741980437    0.2404819133000492    0.3171500189535042
0.5064048486383107    0.7370863905119385    0.3189576398931488
0.6632883581056450    0.2343478575203089    0.4780556963926403
0.1609834197506743    0.7229269610659972    0.4761936566103956
0.3412430482378227    0.2597810408469032    0.1572483276234386
0.8376893147989916    0.7463514769545434    0.1562422214412546
0.0004496209099708    0.0013817096277799    0.3845333790993379
0.5010401910181058    0.4887453092159875    0.3803247091189860
0.6650510910276173    0.9900778505467784    0.0614614267029320
0.1726636774806239    0.4960547292531885    0.0524790279996225
0.3329781487140488    0.9999997735066368    0.2128208622232494
0.8340377233236421    0.4986458354231474    0.2174750408130794
0.0060586756951286    0.9908524436329639    0.0719477744803165
0.5056002581253993    0.4884526494157491    0.0745247082730901
0.6651088673546620    0.0009273690789152    0.2326160058851126
0.1696193588806482    0.5036463399174237    0.2277361938557938
0.3330474349589744    0.0012933100307811    0.3882459176597307
0.8349077070036754    0.5014381897228017    0.3916239354395589
0.8683465873763356    0.6198962123106500    0.3173518171687004
0.3679519768879084    0.1219161640640789    0.3153343209734061
0.5219988004940038    0.6244917437927570    0.4692066848673197
0.0315164545348476    0.1389074178792523    0.4768189278690285
0.2074323081646020    0.6184790614957045    0.1525937158583053
0.7029404500190016    0.1196831523763990    0.1593587873319083
0.8776298427813038    0.8875705761843687    0.3185392282340677
0.3754204796374255    0.3862609731257342    0.3160397792344420
0.5894701899665954    0.8389847196605859    0.4746801687011384
0.0565438376874696    0.3772524829292110    0.4768103851295681
0.2078735786760693    0.8874771894573283    0.1496008276558634
0.7039215457830498    0.3798586728387657    0.1594026097990620
0.0922603760728753    0.0013775037361439    0.1507445230322098
0.5881752259130739    0.4950894638199645    0.1618008792303109
0.7567570890906135    0.9857755604639483    0.3189566777443678
0.2570374174113983    0.4919814653553485    0.3173545693793378
0.4084774583981098    0.9780902092553021    0.4769770892141597
0.9176652466485923    0.4787886621163756    0.4714567361110586
0.0836340409918850    0.7508054859066960    0.2126003776465393
0.5771381194864734    0.2347855417946259    0.2164788419112551
0.7526422795804986    0.7491417843816873    0.3868008103293827
0.2492496114382414    0.2479692870290172    0.3806607217581613
0.4243728644044549    0.7514792692245915    0.0433497912455336
0.9057673147182822    0.2475746987018503    0.0523123849242942
0.9174179914241336    0.7509368462514597    0.2285002553573990
0.4161021313783432    0.2467391193265122    0.2320073765813321
0.5892877506369781    0.7492564827586521    0.3909560032558091
0.0851712903510247    0.2506066520517434    0.3903535487242074
0.2534256619765932    0.7456993509718399    0.0654124690498150
0.7578861959938404    0.2341218552072071    0.0746508974946125
0.9521836348239452    0.8629331503948429    0.1518592111334765
0.4589466095598727    0.3719120748438152    0.1629383030612475
0.6184091739261225    0.8671693941959352    0.3174217797266619
0.1172051794290564    0.3709688890902584    0.3157035934144320
0.2847157538254488    0.8964881653622407    0.4703760243828836
0.7875730438191423    0.3916332427314584    0.4759296606647891
0.9546828188589503    0.1343421420526515    0.1517716158980366
0.4572204694334188    0.6379572004149351    0.1491668556865448
0.6271242408527465    0.1326616116100936    0.3201891802301605
0.1259268206288619    0.6420220831485359    0.3146857775414577
0.3043460873547150    0.1339885421146124    0.4747621562618038
0.8175429308749833    0.6215875107863460    0.4787902336338717
0.0056573324660563    0.7440090374471575    0.3154306562261607
0.5068297942372858    0.2327658876762016    0.3200431128202701
0.6874401957454732    0.7050794206354124    0.4885565168787152
0.1638271802615886    0.2218365154090209    0.4766276327505188
0.3406129555956529    0.7477244724755351    0.1472897123833684
0.8401085925422420    0.2511137739637278    0.1599439272282749
0.8334737255214623    0.9993541418225840    0.2176365143215584
0.3340725173318125    0.5050015577276968    0.2155565113466249
0.4965249885609838    0.9949262477905194    0.3846817348372902
0.0013344045201431    0.5007049048005876    0.3812076851961114
0.1825832191680295    0.0188945712194545    0.0502282388719778
0.6583584624129541    0.4724891596912450    0.0591572353324388
0.4997588510144107    0.0105781256805309    0.7709651717135115
0.0009469770490842    0.4995926920256660    0.7744277219435791
0.1661893765288333    0.9966187587886550    0.6087520010140695
0.6633974814771481    0.5009174243901966    0.6071507018219652
0.8361326723314184    0.0257632212923090    0.9414713190226414
0.3136000100301223    0.5176066439436274    0.9504839428678074
0.2093174248724952    0.8863216235097697    0.6829917224522782
0.7057948247830873    0.3888930304760497    0.6809023408239718
0.8867683458679622    0.8973113842333464    0.5228670236979889
0.3782128153975891    0.4002769777192484    0.5242709876187804
0.5382262976225130    0.8876418198771434    0.8416492380300863
0.0370960198230314    0.3836570298122783    0.8490558524941355
0.2028629774349805    0.6181633815314913    0.6841062579230613
0.7021352348742073    0.1273863116720121    0.6828805447592439
0.8654936735589187    0.6235592085806593    0.5252128309702526
0.3550453064391310    0.1393120628035009    0.5200700923479923