Cl48Li288P48S240
1.0
   25.1819793006824639    0.0000000000000000    0.0000000000000015
   -0.0000000000000009   14.5388225279766061    0.0000000000000009
    0.0000000000000000    0.0000000000000000   37.2126966544236950
Li  P  S  Cl
288  48  240  48
Direct configuration=      1
0.0382793114419358    0.1150803902579187    0.1851170533134406
0.5382791851278819    0.6150804357271189    0.1851169597585129
0.7058048038819268    0.1172203295078775    0.3460935422064028
0.2058047289653967    0.6172200852462058    0.3460936021867617
0.3688822588237612    0.1068982184027348    0.0206049194455257
0.8688834489928701    0.6068974107520501    0.0206052182597236
0.0083241078630656    0.2500091168363774    0.2460504365368832
0.5083240773765165    0.7500088554447594    0.2460504535026111
0.6716914447747339    0.2486915432854920    0.4087022423361654
0.1716912873453491    0.7486927395428540    0.4087019589421437
0.3422818333371391    0.2501262154410572    0.0856599054577801
0.8422817839463319    0.7501268850493380    0.0856599771641321
0.1208435604759059    0.3625033072040200    0.2460545968228966
0.6208436741428242    0.8625033149583969    0.2460546046888530
0.7884858501449622    0.3681404002936502    0.4086960890295709
0.2884863106583888    0.8681401823718512    0.4086956688183996
0.4539167702656594    0.3615194145083475    0.0856618277932940
0.9539168049810303    0.8615193622621080    0.0856617958271246
0.1733218424268970    0.2498881043835746    0.1851182721033629
0.6733217552887474    0.7498874299310553    0.1851183834890523
0.8384840827316721    0.2501061333244323    0.3460934406003580
0.3384840412491084    0.7501058470337726    0.3460933721076035
0.5121144979536365    0.2498989801333571    0.0206005373085597
0.0121141480461049    0.7498975921388831    0.0206005093766708
0.1208324665335567    0.1374757046301475    0.2460457195753923
0.6208323031068815    0.6374756126812328    0.2460457775954427
0.7898178065008979    0.1332001318440582    0.4087071146612767
0.2898167276279737    0.6331996912243172    0.4087075351394180
0.4538015196812522    0.1383645269041199    0.0856581053123450
0.9538015055386546    0.6383646701554814    0.0856582384813443
0.0383988748586152    0.3850456571859866    0.1851194964817959
0.5383989388120252    0.8850457876981117    0.1851196029612439
0.7057105867555938    0.3826736111414017    0.3460933785290986
0.2057106587171223    0.8826735189605164    0.3460931874037667
0.3690022186595975    0.3932400483417774    0.0205962099266673
0.8690030365434186    0.8932408164539427    0.0205964191931906
0.9558047421098740    0.8672201600844177    0.3460936295291612
0.4558048227882286    0.3672202241508567    0.3460934683518753
0.6188827654775895    0.8568979182733645    0.0206049901443266
0.1188838687670589    0.3568971146337041    0.0206051405048013
0.2882793377590070    0.8650804077925192    0.1851169737016902
0.7882792428539995    0.3650803137383964    0.1851170591858715
0.9216915207784147    0.9986926323085804    0.4087023846329386
0.4216911969788992    0.4986909056083335    0.4087018082337561
0.5922818440662649    0.0001270802003617    0.0856599353115173
0.0922817131104054    0.5001267298248250    0.0856598732690093
0.2583241036159569    0.0000088392902421    0.2460504504411697
0.7583240707183524    0.5000090204843022    0.2460504332325264
0.0384864310938152    0.1181402543218981    0.4086957560633038
0.5384856946620992    0.6181404096635623    0.4086959632830102
0.7039169782804259    0.1115196175995415    0.0856616565459113
0.2039167947408144    0.6115193728645444    0.0856618009920428
0.3708435870119471    0.1125031778221799    0.2460545985513797
0.8708436214877884    0.6125031691917942    0.2460546606145247
0.0884840428355131    0.0001059140542164    0.3460934046073363
0.5884840541948525    0.5001060268610914    0.3460933946891436
0.7621144466210124    0.9998963780946690    0.0206004746482966
0.2621142804544973    0.4998975059893676    0.0206004250572031
0.4233218781517964    0.9998878094374830    0.1851182544363439
0.9233218276370351    0.4998877140810410    0.1851183726004257
0.0398172730032294    0.8831998953796451    0.4087075329745543
0.5398172467986867    0.3831999830400928    0.4087072581396952
0.7038014104904713    0.8883647812897445    0.0856582108233056
0.2038015403255735    0.3883646148837850    0.0856579998867202
0.3708323906576116    0.8874754822522923    0.2460456688146453
0.8708323804352610    0.3874755628680170    0.2460457666562828
0.9557106490454679    0.1326735153425673    0.3460933255628039
0.4557105969876867    0.6326735887612828    0.3460933392374447
0.6190013138134579    0.1432396547473487    0.0205961743399490
0.1190022512346003    0.6432406252794417    0.0205962079303169
0.2883988511396404    0.1350457315542560    0.1851195822610724
0.7883989073609196    0.6350456060679496    0.1851195659937935
0.0382792596925013    0.6150804083410565    0.1851169164499686
0.5382792891867711    0.1150805231132531    0.1851170559796307
0.7058047702973459    0.6172200755171949    0.3460936102092447
0.2058047871698253    0.1172203357134921    0.3460935261834687
0.3688835481760713    0.6068971712821091    0.0206051867594607
0.8688818614177906    0.1068982033868497    0.0206048023127403
0.0083240127304798    0.7500086219307930    0.2460504722187969
0.5083240980503279    0.2500090816811756    0.2460504327560162
0.6716912896420878    0.7486927802853575    0.4087019324904612
0.1716914233215122    0.2486915799865861    0.4087022194156085
0.3422817336926179    0.7501267941799910    0.0856599183271398
0.8422817858036441    0.2501263283470097    0.0856598663568433
0.1208435509971762    0.8625032175550882    0.2460546449363135
0.6208436777643417    0.3625034323404949    0.2460545815731024
0.7884865030205155    0.8681400560587378    0.4086956827640510
0.2884859914272588    0.3681402348095277    0.4086961251395490
0.4539166912675046    0.8615194793796548    0.0856616994509702
0.9539169713596196    0.3615194124282594    0.0856616314946017
0.1733217457191323    0.7498878773349422    0.1851183722153718
0.6733218318116478    0.2498875779722305    0.1851182792761491
0.8384840621990973    0.7501058502019783    0.3460933499266714
0.3384840693085656    0.2501061191247826    0.3460934401221484
0.5121142166029559    0.7498971870678228    0.0206003734970904
0.0121145310758803    0.2498988834593931    0.0206004284653134
0.1208323522225879    0.6374754371558176    0.2460457339261890
0.6208323119821278    0.1374757637077036    0.2460457403048029
0.7898166664887465    0.6331995799519754    0.4087075643884358
0.2898177297057614    0.1332000292335452    0.4087071756939955
0.4538017639204496    0.6383648028008351    0.0856580737692383
0.9538014301068590    0.1383644824214704    0.0856580585634609
0.0383988073962002    0.8850457538201526    0.1851196820823219
0.5383988777488635    0.3850458210920468    0.1851195330361087
0.7057106858229685    0.8826735035290546    0.3460931791499320
0.2057106016003732    0.3826735927904524    0.3460933835519159
0.3690027488949172    0.8932409642597715    0.0205962828588031
0.8690023149007556    0.3932403299099738    0.0205961453563783
0.7882792115120609    0.8650803502440348    0.1851170016895615
0.2882793092045264    0.3650805264382371    0.1851169582603003
0.4558047437507392    0.8672201787270691    0.3460936382417331
0.9558048188429372    0.3672202045564852    0.3460934624968836
0.1188832157520140    0.8568978566146588    0.0206051054210930
0.6188844133878757    0.3568966315053129    0.0206051783675213
0.7583240795859394    0.0000088940588269    0.2460504555006490
0.2583240383659404    0.5000087936872870    0.2460504520801440
0.4216915062098793    0.9986929491125907    0.4087023669008414
0.9216912006628917    0.4986912472081279    0.4087017960482117
0.0922818429602275    0.0001272594661005    0.0856599361261939
0.5922817324723432    0.5001269834885640    0.0856598773250721
0.8708436086299370    0.1125033814812966    0.2460545539734305
0.3708435960669633    0.6125033309358445    0.2460546742591530
0.5384864880448341    0.1181402387653019    0.4086957663225721
0.0384857686913733    0.6181403992703127    0.4086959148941884
0.2039168117147585    0.1115196065898632    0.0856617751448121
0.7039172484519570    0.6115193905728937    0.0856616221660184
0.9233217931933250    0.9998878986241467    0.1851182870106232
0.4233217255362299    0.4998880219464960    0.1851183974485319
0.5884840670340435    0.0001058919829695    0.3460934101830154
0.0884840174896808    0.5001060223960000    0.3460933738962644
0.2621144395184333    0.9998967332091148    0.0206004849560608
0.7621142409352052    0.4998969352017444    0.0206004190113236
0.8708323698728634    0.8874755771356856    0.2460456879743773
0.3708323554259650    0.3874755684578904    0.2460457607358414
0.5398172018978717    0.8831997988941908    0.4087075186175609
0.0398171982724278    0.3831999923480081    0.4087072762702827
0.2038016642852089    0.8883648592567547    0.0856581446759261
0.7038011216577055    0.3883645603993970    0.0856582246834408
0.7883989691099828    0.1350457057170880    0.1851195082056173
0.2883987822045546    0.6350458707652205    0.1851196338181559
0.4557106606258067    0.1326735229379674    0.3460932836823924
0.9557106328350564    0.6326736272981153    0.3460933005457005
0.1190014260397395    0.1432398246683536    0.0205961396880814
0.6190022797442181    0.6432405032983201    0.0205962462712399
0.3714838997156769    0.8856728708389540    0.8132292290904795
0.8714838845039642    0.3856727921451668    0.8132292035244155
0.0388990663568463    0.8829450877610605    0.6549778027825726
0.5388991669102063    0.3829451056526114    0.6549776670312182
0.7122524261344466    0.8632836797536013    0.9708040287701903
0.2122532504031359    0.3632834203955818    0.9708046394129984
0.3411007339310194    0.7501071498632679    0.7537985477532003
0.8411007594964804    0.2501071104566046    0.7537985786942656
0.0080033940120303    0.7485395500409812    0.5923932182545272
0.5080035341838226    0.2485396980641396    0.5923932697093759
0.6606739875382002    0.7499145792659497    0.9150126476715151
0.1606738705247345    0.2499143351950241    0.9150127105167696
0.4543973011484974    0.6366028776152447    0.7537961935680941
0.9543973256480562    0.1366026384255012    0.7537961522136833
0.1217432094751913    0.6377628495360440    0.5923990119357839
0.6217433067577721    0.1377627937834139    0.5923987500798015
0.7947024613054774    0.6160480870803900    0.9150101534832343
0.2947023604958441    0.1160480259868171    0.9150100969265524
0.5070947801327926    0.7499299576587408    0.8132285594634506
0.0070947627027591    0.2499301430716214    0.8132285689697889
0.1720190496551276    0.7501766912195317    0.6549764509297595
0.6720189592588036    0.2501768300977939    0.6549763870372741
0.8255174451145804    0.7499451465141519    0.9708031886239294
0.3255174239225738    0.2499441468814095    0.9708030348511433
0.4545019068744876    0.8633009067741204    0.7538007401471558
0.9545018456765804    0.3633006771238240    0.7538008161225235
0.1202580079335671    0.8637365205095533    0.5923889033904199
0.6202584333893680    0.3637361493663558    0.5923888241701734
0.7946237795974977    0.8840262335329763    0.9150154826682270
0.2946237054037094    0.3840260135794206    0.9150153338276107
0.3714213474265830    0.6143883263574484    0.8132277669711542
0.8714213704230948    0.1143883601371768    0.8132279101448744
0.0390821374592619    0.6168872283485415    0.6549755699244568
0.5390821610353340    0.1168872614235627    0.6549755784276953
0.7122301512502409    0.6367305147367149    0.9708018850357800
0.2122292704657291    0.1367306787277952    0.9708012745164372
0.2888992002501257    0.1329450755015759    0.6549776918666215
0.7888990260585839    0.6329450529448507    0.6549778199034592
0.9622537838241183    0.1132836004355600    0.9708049232166002
0.4622524516406287    0.6132837767325481    0.9708039335624979
0.6214838000070435    0.1356728597836757    0.8132293286965022
0.1214839309532760    0.6356728039632050    0.8132292980895112
0.2580035129695074    0.9985390804781793    0.5923932912362057
0.7580034287659687    0.4985401066652100    0.5923931992162146
0.9106739017862924    0.9999148890392537    0.9150127017510490
0.4106739583053651    0.4999140342922583    0.9150126031248546
0.5911007448101339    0.0001071745778502    0.7537985716933175
0.0911007343209501    0.5001071796431014    0.7537985919034175
0.3717435778975590    0.8877630800734652    0.5923987392845833
0.8717430094444477    0.3877625196905213    0.5923990334125951
0.0447024161570859    0.8660481310144857    0.9150101293658318
0.5447024551761418    0.3660480563317355    0.9150100533801291
0.7043973324370004    0.8866027516817084    0.7537961641138369
0.2043972820188531    0.3866028370826935    0.7537960828523060
0.4220189256046953    0.0001769408313869    0.6549763955460238
0.9220189930488996    0.5001767962986339    0.6549764129819499
0.0755174426174269    0.9999454891357066    0.9708030587621508
0.5755173427509342    0.4999446012064176    0.9708032065135846
0.7570947984294434    0.9999302453835475    0.8132286028978980
0.2570947519285013    0.4999301291287558    0.8132285740607631
0.3702587852512231    0.1137359936023788    0.5923886582290208
0.8702576436427418    0.6137367582533162    0.5923890708861093
0.0446235720017695    0.1340262362883741    0.9150153398791779
0.5446238244735031    0.6340260690380358    0.9150153462583425
0.7045018289734101    0.1133007979637634    0.7538007608897638
0.2045018547022563    0.6133006450381231    0.7538009637758666
0.2890821503023837    0.8668871734118181    0.6549754638745673
0.7890820594696277    0.3668872274657541    0.6549756533709862
0.9622286620990841    0.8867308885041586    0.9708011077195952
0.4622302971704898    0.3867304473659708    0.9708018509838179
0.6214214460695785    0.8643884009352536    0.8132278404562499
0.1214213431614723    0.3643883149224983    0.8132278370549961
0.3714836489238930    0.3856726480827448    0.8132292692094032
0.8714838293758423    0.8856727502841968    0.8132292369883766
0.0388990631501911    0.3829449910837973    0.6549778049963008
0.5388990608044689    0.8829451565540747    0.6549777480539629
0.7122532631014501    0.3632835674442736    0.9708046151160614
0.2122536914789019    0.8632840399553416    0.9708047350319957
0.3411007452424328    0.2501071591647410    0.7537985716798270
0.8411007877766420    0.7501071650089405    0.7537985503427634
0.0080035278128250    0.2485400272985852    0.5923932286889021
0.5080034049744314    0.7485393768880267    0.5923932043203232
0.6606738763972416    0.2499142398218777    0.9150127088661840
0.1606739742947937    0.7499146504790539    0.9150127012419248
0.4543973205779927    0.1366027896476457    0.7537961446756938
0.9543972825469582    0.6366025496480713    0.7537961450870628
0.1217433740318919    0.1377628901074431    0.5923987141638606
0.6217431519778209    0.6377628285646363    0.5923990255757000
0.7947023536228581    0.1160479795475236    0.9150101284251478
0.2947024342675261    0.6160480696344780    0.9150102516460622
0.5070948351697546    0.2499300131750901    0.8132285387528677
0.0070948286992916    0.7499301592483828    0.8132285277210206
0.1720188141695396    0.2501768901378457    0.6549763584220566
0.6720189446784598    0.7501768145330987    0.6549764130236206
0.8255174129393360    0.2499445785547392    0.9708030828694233
0.3255173698198980    0.7499451964222629    0.9708031964502889
0.4545018945805375    0.3633010281707803    0.7538007952414481
0.9545019174709410    0.8633008672638142    0.7538007748856502
0.1202584036692725    0.3637362042816517    0.5923888371265050
0.6202580382292117    0.8637365025822097    0.5923888927029449
0.7946237178811417    0.3840260430517988    0.9150151620835110
0.2946237637721947    0.8840261808493500    0.9150152245671227
0.3714215788332663    0.1143883538744377    0.8132279567370130
0.8714214434372430    0.6143884553496988    0.8132278458578941
0.0390821506324385    0.1168871249092601    0.6549754672492168
0.5390820681144737    0.6168873071755953    0.6549756375534721
0.7122292813890226    0.1367308363517998    0.9708012936462044
0.2122290059393116    0.6367306048674890    0.9708011840751009
0.1214837606154687    0.1356727091172351    0.8132290834741706
0.6214836993232571    0.6356727652576465    0.8132293030174467
0.7888991998155227    0.1329450468894605    0.6549776931539418
0.2888989702440655    0.6329449901126082    0.6549778222474746
0.4622537320705700    0.1132835076608753    0.9708045688379344
0.9622536163663372    0.6132837986207411    0.9708047075445593
0.0911007619696397    0.0001070900688303    0.7537985704590443
0.5911007543481742    0.5001071700451353    0.7537985534174538
0.7580035235975152    0.9985390750174725    0.5923932896359561
0.2580034378389901    0.4985400328491619    0.5923931891146252
0.4106738745276951    0.9999151224100375    0.9150127080976200
0.9106739801982829    0.4999144138674704    0.9150126318896818
0.2043973138705065    0.8866026345260601    0.7537961511660284
0.7043974260602305    0.3866026739282738    0.7537961273257237
0.8717434455129986    0.8877630498008633    0.5923986577847909
0.3717429499043259    0.3877624871943952    0.5923989584244314
0.5447024868911498    0.8660481255040496    0.9150101764652687
0.0447025020864603    0.3660480637419238    0.9150102122986377
0.2570948310736973    0.9999301419042705    0.8132285400559799
0.7570948043427489    0.4999302425309501    0.8132284882197640
0.9220188827641171    0.0001767544399864    0.6549763882887577
0.4220189367344220    0.5001769879866061    0.6549764005844507
0.5755174480748732    0.9999451168786266    0.9708030465366122
0.0755173628926807    0.4999446541118032    0.9708031885040584
0.2045019157092383    0.1133010592675366    0.7538007119846222
0.7045018269819041    0.6133009205525757    0.7538008538038582
0.8702587669284085    0.1137360351735514    0.5923887260663199
0.3702575331052294    0.6137368008710801    0.5923891339564952
0.5446235232220010    0.1340262446534794    0.9150153660146589
0.0446237329849308    0.6340261035579146    0.9150152079728399
0.1214213975892322    0.8643884024533995    0.8132279833509490
0.6214215138339129    0.3643883723419472    0.8132277120020248
0.7890821685021743    0.8668871415310283    0.6549754240693274
0.2890821018794549    0.3668871919186595    0.6549756327065079
0.4622286754882368    0.8867308529979891    0.9708014811113347
0.9622290411002110    0.3867305465835079    0.9708010883006686
0.0000005832807596    0.9999923896696435    0.0165849800104558
0.4999998257261805    0.4999942299431029    0.0165849152199505
0.6666667522012035    0.0000010889239191    0.1683862238416015
0.1666666813914452    0.5000010457606132    0.1683861381904671
0.3333344695095361    0.0000050005843191    0.3274826246097103
0.8333344117896022    0.5000050563422698    0.3274827385213408
0.9166665872457168    0.7500008450516852    0.1683862607832495
0.4166667138572261    0.2500008753954278    0.1683862155713353
0.5833344744997770    0.7500050716606292    0.3274826518365547
0.0833344567338034    0.2500050186454837    0.3274825573458254
0.2499999213522563    0.7499938395403596    0.0165849910016166
0.7500005328413953    0.2499947961120208    0.0165849260433314
0.1666666103751760    0.0000009648065854    0.1683862459940397
0.6666666246395189    0.5000009076343712    0.1683861874509746
0.8333347249151623    0.0000049401592364    0.3274826008441572
0.3333343957865093    0.5000051442198480    0.3274827252708553
0.5000006730831497    0.9999925909819553    0.0165849762358329
0.9999999590285208    0.4999936059365990    0.0165849327303097
0.9166667894045569    0.2500009504906429    0.1683861910903129
0.4166668483265023    0.7500011495294121    0.1683861188412488
0.5833345475011102    0.2500051056448345    0.3274825238266573
0.0833342980810246    0.7500051476520970    0.3274826397874143
0.2500005962508027    0.2499944708305395    0.0165849172691391
0.7500001457362735    0.7499938338637502    0.0165849698502087
0.3333320258139214    0.9999018123698185    0.5002937828760150
0.8333357474393225    0.4999023508983409    0.5002938940366317
0.9999997560443163    0.0000010079759485    0.8338493930402724
0.5000000258020618    0.5000010276003177    0.8338491872080982
0.6666670084092463    0.9999982877818355    0.6720135461588711
0.1666668251799320    0.4999981720926622    0.6720136728170405
0.2500000376841940    0.2499993512033230    0.8338492954796157
0.7499998699477629    0.7500012205821558    0.8338492907705332
0.9166667818162572    0.2499982261971156    0.6720136734168870
0.4166668085082636    0.7499983305535149    0.6720135589467411
0.5833332772064432    0.2499027493167142    0.5002938035771601
0.0833344821547421    0.7499014096559347    0.5002938747159053
0.4999999818626487    0.0000011795450473    0.8338493632599882
0.0000002306733173    0.5000010109551959    0.8338492123133053
0.1666668393322053    0.9999983513682067    0.6720135705745242
0.6666669285380378    0.4999984145583981    0.6720136283788524
0.8333319808039485    0.9999027683633976    0.5002937484623150
0.3333358689767889    0.4999034311691346    0.5002938683921412
0.2500000527441119    0.7500010904227018    0.8338493699988405
0.7500001937625598    0.2499991397586143    0.8338492964525933
0.9166667544918264    0.7499985182088790    0.6720135280716680
0.4166666901236614    0.2499983369619320    0.6720135356484371
0.5833346866622775    0.7499013862401186    0.5002938607914927
0.0833333552728673    0.2499024012266647    0.5002937792526383
0.1666666534450514    0.9999949837468571    0.2241520185067023
0.6666666974207258    0.4999952071440520    0.2241519645700565
0.8333343201331728    0.0000017232710586    0.3831575107514074
0.3333338786648848    0.5000017619485257    0.3831575732838299
0.5000002591918844    0.0000017318919901    0.0739136219187666
0.9999998792861899    0.5000024745387748    0.0739135688771352
0.8719610394050253    0.1159474724000423    0.3098710490229256
0.3719609500219213    0.6159474394490713    0.3098711301747700
0.5434847230441712    0.1357947910292139    0.4736192984346179
0.0434836707090905    0.6357954368349598    0.4736195454931998
0.2050503433826967    0.1148636305945414    0.1496594327620875
0.7050504678134413    0.6148635970870701    0.1496593823487724
0.8719885331235171    0.3840999698628721    0.3098629810172903
0.3719887571472846    0.8840996756457761    0.3098628483089609
0.5461330685602173    0.3667941313797938    0.4736620860033443
0.0461323323353951    0.8667927570045230    0.4736627714733604
0.2049051994104712    0.3849972643492393    0.1496563993615769
0.7049048036212259    0.8849968727082012    0.1496566309870986
0.2560518759107338    0.9999637062532543    0.3098677569933744
0.7560515181082278    0.4999637604417276    0.3098676740863565
0.9103556632887583    0.9974066242825809    0.4736513098447597
0.4103564038339141    0.4974022750660104    0.4736493720862283
0.5900444975475408    0.0001480591269320    0.1496579021441520
0.0900445103746527    0.5001478109548438    0.1496578925706914
0.0833332883261341    0.2500026839654461    0.2092651386501547
0.5833332860393191    0.7500026816327781    0.2092651996754568
0.7499998075915429    0.2499940824017716    0.3743606151789421
0.2499998430129229    0.7499938593523003    0.3743605468575714
0.4166669032966179    0.2500081009901108    0.0446967540516829
0.9166666209760684    0.7500080960299995    0.0446968991538708
0.9166667544976878    0.2499951225709845    0.2241519312632297
0.4166666969752768    0.7499950261076815    0.2241520020811052
0.5833342084451699    0.2500018330296032    0.3831575893569742
0.0833339922232311    0.7500016948925675    0.3831575945288695
0.2500001879561514    0.2500027233076112    0.0739135921628335
0.7499999401006104    0.7500026569137034    0.0739135735947375
0.1219609278820838    0.8659474331202874    0.3098710883577412
0.6219610519201110    0.3659474414938065    0.3098710550236940
0.7934843483718111    0.8857942010955269    0.4736192852948377
0.2934848239963610    0.3857958425754107    0.4736200861219518
0.4550504544055615    0.8648632717891216    0.1496592943501004
0.9550504829373760    0.3648636753191936    0.1496592847787061
0.1219886439893260    0.1340998579150316    0.3098629193955763
0.6219886039436515    0.6340998705840198    0.3098629712451265
0.7961337430099504    0.1167946446620835    0.4736614721445465
0.2961315871347765    0.6167929786047083    0.4736630316572006
0.4549052121024556    0.1349972910780294    0.1496565201744173
0.9549051600763984    0.6349970445822172    0.1496565404148268
0.0060517976632127    0.2499636627930951    0.3098677527816236
0.5060515762751143    0.7499637269163807    0.3098677230444178
0.6603560931259188    0.2474046438696731    0.4736507554635078
0.1603562137583709    0.7474046770000212    0.4736500788587850
0.3400445186030482    0.2501478217620877    0.1496579123647185
0.8400445037298726    0.7501476964365839    0.1496579892449439
0.9999998800283072    0.9999938470734030    0.3743607377271924
0.4999998492228071    0.4999940010746294    0.3743604453502564
0.6666668748129767    0.0000085532344208    0.0446967428160380
0.1666665935400250    0.5000085793958384    0.0446967721011806
0.3333332857318129    0.0000026420392364    0.2092651567565191
0.8333332911393893    0.5000025931096704    0.2092652040570133
0.0000002476193592    0.0000016458751513    0.0739136215121519
0.4999997545919220    0.5000019678759452    0.0739135679945849
0.6666666840238181    0.9999952652968287    0.2241520325590103
0.1666666768756958    0.4999948893808951    0.2241519910811879
0.3333343029047086    0.0000016723562065    0.3831575206366419
0.8333338648982569    0.5000017580765945    0.3831575807507691
0.8719609763492477    0.6159474875970971    0.3098710953959745
0.3719610936063305    0.1159475309333972    0.3098710219811662
0.5434836847707898    0.6357954909632345    0.4736196148238662
0.0434845740812592    0.1357948782065233    0.4736192549082397
0.2050502624253470    0.6148637501659101    0.1496594711502218
0.7050506336167621    0.1148633577444933    0.1496592944014969
0.8719887104477252    0.8840997976993371    0.3098628815809913
0.3719885254633191    0.3840999000605171    0.3098629728634258
0.5461322193357586    0.8667926243234483    0.4736627156012512
0.0461330209040250    0.3667938814386231    0.4736621514108337
0.2049051251626199    0.8849971079012742    0.1496565314212529
0.7049050785293238    0.3849971323902612    0.1496565213370445
0.0900445621581254    0.0001477877665413    0.1496579543159766
0.5900444946103152    0.5001479296495025    0.1496579100506606
0.7560517211149607    0.9999637795633448    0.3098677402689692
0.2560514942340835    0.4999637320775005    0.3098676666844414
0.4103558135876056    0.9974066817371910    0.4736513317913400
0.9103564689525105    0.4974025839472424    0.4736494847064720
0.0833332356906824    0.7500026122572327    0.2092652233448453
0.5833332583501999    0.2500028007625147    0.2092651529150583
0.7499998202607994    0.7499938744176546    0.3743605575674495
0.2499998152384383    0.2499940925818471    0.3743606454649457
0.4166665308527218    0.7500082383261949    0.0446967846601066
0.9166668872493587    0.2500079852322193    0.0446966405913721
0.9166666405517481    0.7499951475303528    0.2241520458523300
0.4166666203048945    0.2499949953784220    0.2241520540168916
0.5833339796818265    0.7500017301071205    0.3831575799189398
0.0833341727538830    0.2500018590887166    0.3831575635300685
0.2499998328515564    0.7500022341739834    0.0739136112057574
0.7500001386005102    0.2500032207768756    0.0739136037085985
0.9550502890751947    0.8648635312144169    0.1496593938223602
0.4550502205708377    0.3648637502298273    0.1496595291560545
0.6219609289712292    0.8659473678864712    0.3098710840430332
0.1219610598059706    0.3659475463091476    0.3098710546331951
0.2934839731540616    0.8857943354254757    0.4736191256735214
0.7934845099767283    0.3857958440437824    0.4736198712034391
0.9549050677318116    0.1349971302433248    0.1496565731620008
0.4549049802918335    0.6349969876641111    0.1496565132228534
0.6219886449539758    0.1340998865286669    0.3098629479168094
0.1219886475573030    0.6340997210591734    0.3098629652692578
0.2961337632733899    0.1167941804207171    0.4736616644157284
0.7961315269400553    0.6167924779822475    0.4736631192761372
0.0060516650155208    0.7499637541609157    0.3098677423158893
0.5060517558755208    0.2499637029012822    0.3098677426792618
0.6603561960752531    0.7474045939382689    0.4736500297008770
0.1603561304652889    0.2474046942837146    0.4736507297597898
0.3400444090603245    0.7501478360597948    0.1496579094770353
0.8400444847471358    0.2501478514598051    0.1496578345517443
0.8333332762764463    0.0000026646877651    0.2092651548620088
0.3333332542473245    0.5000027431596327    0.2092652089120809
0.4999998021569596    0.9999938716354575    0.3743607242983337
0.9999999090578214    0.4999939958244826    0.3743604538407704
0.1666668681751748    0.0000085767976414    0.0446967713426047
0.6666665912800126    0.5000085764307153    0.0446967826939270
0.5000000377777835    0.0000057993317691    0.7778738783415960
0.0000000269880547    0.5000056118762467    0.7778739395794738
0.1666662845944857    0.0000038879082456    0.6161627738096874
0.6666662903314340    0.5000038806657247    0.6161628353129788
0.8333332862543779    0.9999993944355785    0.9591916089692768
0.3333334419372567    0.4999990893475922    0.9591917336848205
0.2052391126062573    0.8843936720339148    0.6900055104724785
0.7052390267457394    0.3843933326140475    0.6900056087280664
0.8728312039698746    0.8861586774894166    0.5270934635220192
0.3728314094796168    0.3861569760608329    0.5270937934766747
0.5391262848355850    0.8824242345510037    0.8501705725318736
0.0391261934134391    0.3824242668346141    0.8501706902818094
0.2051821234062066    0.6156571579184577    0.6900086767097493
0.7051821697825802    0.1156573649886187    0.6900080928522204
0.8705256897474016    0.6160888604881580    0.5270520958352870