Cl48Li287P48S240
1.0
   25.1819793006824639    0.0000000000000000    0.0000000000000015
   -0.0000000000000009   14.5388225279766061    0.0000000000000009
    0.0000000000000000    0.0000000000000000   37.2126966544236950
Li  P  S  Cl
287  48  240  48
Direct configuration=      1
0.0423888022671871    0.1126264310626107    0.1893032785565509
0.5419819186526885    0.6176622378247898    0.1870644224864176
0.7063389600357813    0.1481172812556933    0.3455018011544984
0.2125112962037239    0.6579295704421135    0.3410022034153277
0.3909666166482209    0.1119592115837104    0.0197538908487423
0.8929171015836278    0.6099422460751955    0.0161238837972109
0.0061653789269635    0.2524385676389496    0.2490608004704303
0.5028864174200280    0.7685435409040176    0.2483245816772006
0.6646600407483657    0.3302129189681193    0.4101601303408494
0.1650811070557249    0.8307666000424103    0.4104199993175059
0.3464722494110362    0.2946720139311251    0.0887903648123498
0.8465857103972172    0.7876575926905854    0.0856543047417422
0.0996851872005393    0.3902091091533402    0.2487281855847129
0.5998750063173901    0.8854609752443549    0.2497403227135831
0.8268950390818165    0.3461351409081583    0.4082611235092087
0.3266872216635042    0.8519165791044383    0.4107709037613733
0.4767498637338459    0.3632335361910008    0.0890202438128306
0.9749928387524951    0.8666888759175426    0.0851839605577017
0.1730216685037450    0.2486071977527683    0.1904798876459839
0.6748143053916046    0.7418233970626503    0.1965251036051581
0.8300752101938484    0.2429222030097475    0.3476329108191037
0.3319569453363551    0.7528951623087132    0.3485310720267059
0.5016958747034638    0.1953594332082081    0.0250940543948041
0.0028047716725130    0.6941855833691054    0.0230801335633897
0.1209388042133088    0.1482339737162697    0.2525859482455120
0.5969925619338512    0.6197679464490099    0.2514542590402653
0.7287842784478658    0.1548054612023733    0.4268506907595823
0.2357117677026369    0.6522474651596414    0.4246956610218436
0.4406018633753331    0.1421313914215770    0.0962286569973524
0.9432075495104337    0.6434506272975106    0.0933487571743179
0.0405389281685768    0.3803775457377739    0.1838078559349675
0.5406729733406043    0.8780451102664401    0.1838152864600339
0.7129987235566013    0.3965851407657704    0.3480389413413391
0.2120620059079673    0.9028302467331086    0.3492944422128695
0.4037184972530193    0.4139602138317824    0.0267437945958931
0.9020161675765073    0.9148855158131037    0.0215720485168491
0.9574383557868088    0.9014892445913234    0.3441912182069515
0.4581250979032838    0.4069546923752395    0.3443967813913624
0.6414020974389676    0.8615316290387550    0.0179187061472292
0.1413924359643302    0.3642999968712192    0.0184463558465811
0.2895609564361774    0.8678039223668517    0.1874153191599571
0.7934689325006936    0.3658508411975202    0.1878128820736190
0.9143311250059071    0.0804469161892043    0.4100855786011594
0.4135618301137404    0.5787700033033553    0.4109753491605694
0.5948239274552213    0.0423145997820681    0.0871153752506652
0.0971742181598892    0.5423280910449115    0.0870694944611380
0.2535214272170335    0.0154700965381105    0.2471686901734426
0.7570362307158029    0.5134159679693227    0.2484337528613433
0.0746512294184350    0.0991049024854852    0.4090014483413092
0.5792585382171384    0.5967071809792408    0.4101660570856391
0.7259982494956897    0.1138577070185174    0.0875685398093388
0.2273001205072818    0.6119852803111744    0.0871871439650821
0.3429444050114345    0.1428954014900442    0.2495240813883630
0.8490670362637233    0.6412355217990545    0.2486156616058958
0.0798573340196743    0.9998072937193446    0.3467836863579410
0.5816818561422121    0.4971172349795631    0.3479188150153277
0.7512844056892023    0.9453980718168120    0.0246036862452084
0.2521626237214199    0.4445661762923006    0.0237786043230529
0.4244513395931366    0.9984763286770173    0.1961220211646437
0.9267622840410036    0.5001509154175304    0.1934389560679342
0.9812573038813905    0.9054492106556483    0.4263964128919627
0.4830414496749396    0.4079739050425414    0.4277669934407997
0.6898250281676851    0.8921560894040258    0.0951899266011776
0.1920852293229886    0.3928828752318400    0.0939163520176345
0.3553086551674250    0.8842282315504478    0.2517524149332458
0.8650661889027065    0.3908896990249745    0.2514862367963864
0.9610815018937698    0.1498523846282608    0.3485059351019466
0.4630581371990522    0.6490719871666936    0.3487704765401035
0.6538811658798944    0.1646470266974293    0.0260432165440735
0.1545217145913460    0.6645992724896294    0.0245816256192852
0.2903432535065233    0.1278331867624168    0.1822183420903870
0.7919741735262734    0.6290763657777704    0.1825986336022416
0.0433680307644479    0.6126693140462747    0.1885843581164579
0.5435891616914497    0.1143424186801319    0.1892769574847888
0.7080379767742817    0.6521131987905677    0.3434897777457965
0.2087767839009452    0.1541437071890818    0.3443219454577545
0.3915747827295420    0.6109216869851805    0.0185969801888984
0.8901269707147046    0.1135781422598005    0.0145415779562999
0.0077573030810785    0.7789036219234841    0.2487273442347177
0.5042178426271957    0.2511525126242474    0.2502164466666494
0.6654659858342148    0.8295452115242002    0.4103533381132299
0.1628803128994900    0.3362046158847946    0.4099659378309252
0.3458751472295966    0.7892018056964305    0.0892845877711949
0.8466263144408613    0.2991675277835184    0.0861966842169888
0.1218813858163247    0.8659667674163567    0.2494959267075712
0.6004420649853575    0.3899597214419822    0.2507916347465196
0.8270213305410888    0.8463840615702877    0.4082800686258049
0.3252439986662251    0.3523967244737991    0.4093676349874100
0.4748656908975123    0.8639385661623127    0.0890204851237961
0.9777320913288720    0.3618569557842590    0.0863757905830963
0.1741405789663993    0.7468412151615229    0.1898732086098525
0.6744824258498193    0.2510729190825612    0.1935474515874702
0.8311371110326352    0.7433997647020720    0.3477510765849453
0.3304292620310423    0.2452178736570996    0.3498504430472753
0.5021021440697748    0.6962161758999253    0.0248341142130777
0.0011443977729024    0.1953817380525405    0.0231636688541031
0.1135304982626841    0.6368722946128889    0.2514743988882868
0.6155247959378979    0.1436579036903924    0.2532722078232384
0.7299248637999433    0.6534465050966625    0.4261685940759368
0.2274616906792114    0.1585038618147069    0.4266699471668935
0.4423469734173464    0.6427911251012288    0.0945088770118260
0.9376337441856976    0.1423834603991132    0.0926476788765702
0.0417073160526460    0.8853123700449383    0.1849786282111657
0.5403947444870428    0.3864908204881506    0.1876613907811275
0.7122662829164842    0.8981974952912132    0.3485193016007455
0.2133879846666129    0.4023393985976155    0.3475540988968799
0.4019637698766909    0.9146577207065880    0.0282533221498963
0.9047885819439910    0.4157445777284959    0.0230923754650309
0.7935284762398698    0.8643660476912800    0.1879920787197676
0.2857739727864324    0.3708954992181063    0.1939600900243157
0.4558847131269727    0.8992146429700747    0.3457636001131817
0.9572574339479647    0.4039779454072227    0.3428358738418603
0.1408377845869842    0.8580397298536894    0.0110700969285430
0.6405387548680878    0.3594621764325212    0.0134421515431950
0.7550350530439497    0.0096641949336230    0.2484936361979621
0.4116176554499902    0.0845962108424712    0.4118319700036957
0.9165191172816433    0.5783444163726793    0.4100479071212270
0.0952051204288124    0.0414544072024330    0.0843431864268527
0.5971270317846006    0.5424859414357431    0.0864080967423666
0.8479882325339322    0.1399397194272431    0.2489029862631331
0.3480394211656278    0.6217718908330445    0.2538693811507761
0.5748637256746308    0.0963511466478641    0.4095678022288153
0.0776827219784698    0.5987620639971545    0.4090686754306842
0.2243185254621298    0.1144557382493444    0.0835797613035167
0.7245896597652454    0.6171322558409633    0.0852018857160978
0.9250440802250756    0.0007044351746074    0.1928087388803155
0.4081082893430398    0.5003038085552021    0.1811735532118881
0.5797965708705940    0.9905905279195428    0.3494687720887034
0.0805655328401055    0.4986498515836107    0.3468890301326376
0.2512072851457464    0.9461268335318357    0.0226370103690357
0.7522467012527665    0.4461464440499943    0.0232518002343571
0.8643285417786241    0.8914288941334600    0.2512692517853066
0.3588410373043770    0.3971549970777907    0.2553309891097456
0.4716538726709690    0.9028407642264039    0.4257924783373093
0.9864189063192191    0.4011654912563441    0.4241108996517174
0.1889517790969633    0.8908769471203588    0.0903664160062415
0.6901971756082482    0.3910549210218570    0.0927911500116115
0.7908790976464212    0.1308283003946689    0.1834244382281736
0.2807654229661271    0.6264069233820131    0.1919548765498643
0.4595606896666304    0.1502865149105939    0.3497484312528285
0.9614101104764887    0.6493291012254662    0.3477572015584300
0.1513702995695935    0.1673112173261702    0.0183186995696115
0.6524611248141038    0.6653143174343852    0.0205529613148493
0.2024555951377467    0.1356088454013863    0.8051024840707418
0.7017552339167166    0.6354141664599490    0.8055884356493530
0.8688390496230877    0.1249946412327985    0.6433319309476900
0.3699732471515940    0.6250920996320793    0.6417089269951873
0.5004213317505034    0.0815938443889626    0.9620594991779312
0.0004719573912087    0.5798044586152613    0.9599556223853654
0.1823422668997234    0.9965858823416963    0.7436244755321897
0.6814306859530259    0.4960990901626554    0.7437931739838995
0.8633579527984677    0.9145655837368964    0.5809154262848447
0.3646124747478429    0.4090104990627356    0.5823312464277771
0.5043686755894382    0.9644415080085486    0.9046625392442933
0.0028597007974254    0.4583248289514926    0.9042782700525099
0.3104887015386716    0.9030939197476654    0.7518652219274063
0.8078898683334150    0.4015328378993667    0.7516182928231402
0.9803145845648071    0.8964385424739377    0.5905146783505351
0.4811435773175330    0.3956129671462556    0.5902837533262149
0.6286087589959527    0.8631099137766542    0.9177136438020312
0.1285218487201409    0.3617168678858824    0.9170348274923168
0.3333182940880352    0.0021435655122273    0.8167979993710485
0.8337219899542900    0.5017385285583865    0.8162183120791345
0.0058557507952961    0.0070725355792003    0.6536781637911987
0.5045213699816720    0.5049455280610412    0.6559208786795510
0.6587341771614047    0.0265207850526310    0.9782890012103762
0.1590808344298702    0.5256097117015479    0.9773724321037535
0.3119174910338253    0.0963149469610774    0.7491002843175680
0.8101272849730631    0.5964084451848880    0.7489726297976785
0.9597619206841487    0.1078683363158441    0.5860434868332105
0.4699388876115714    0.6006339743327115    0.5876183239549844
0.6189068917764377    0.1187785344235064    0.9147518866584152
0.1183789931083011    0.6207437560594208    0.9143410803251545
0.2022221606017833    0.8699938411262329    0.8067834343341518
0.7017243664664937    0.3706045125411866    0.8077549297242271
0.8759985038046945    0.8740702020983484    0.6535040911108159
0.3771624782115386    0.3733404639278751    0.6542705195297478
0.5066017729536213    0.9042376565268564    0.9751246125796215
0.0095453198217456    0.4004400285337352    0.9748242801227419
0.1198367333570895    0.3759086641534717    0.6438495154646989
0.6190286138239548    0.8755993079762401    0.6426071712291368
0.7513619249094727    0.3307182586342229    0.9612031220368102
0.2510443291216088    0.8321637579823719    0.9603405327067097
0.4520027647796857    0.3853619657516854    0.8061238095296162
0.9518026996505359    0.8845220084794998    0.8047161782463861
0.1146227342351210    0.1628864862127342    0.5814942318123940
0.6135348121295072    0.6648967089985249    0.5810066457593108
0.7531334086994402    0.2125431795182101    0.9043318093249838
0.2533809565899951    0.7133321460357506    0.9042565298321563
0.4320208410511491    0.2475616571648430    0.7444753866330848
0.9314280102792846    0.7425844000464985    0.7437943521180986
0.2311318483450664    0.1475543419609610    0.5902811794621813
0.7303054333839488    0.6467025960959550    0.5899300055365918
0.8791731858942763    0.1129584103456279    0.9162849558008828
0.3789722598816182    0.6144199519058348    0.9172432618170187
0.5587766738615387    0.1516948406242210    0.7523241197736447
0.0590453925704109    0.6515764116054051    0.7513112634430235
0.2563426534636299    0.2578242662342412    0.6539086188797424
0.7553705134781811    0.7566709586310859    0.6540483343023414
0.9094512989914336    0.2793251218747490    0.9765337964342534
0.4088108418503998    0.7780093783479739    0.9783904875270615
0.5834925276390446    0.2517389861646132    0.8171351894147970
0.0837528085275007    0.7512621795308323    0.8157493356856577
0.2058116254489795    0.3590402592994830    0.5848843387296259
0.7120673627412294    0.8561023785197805    0.5858859134684609
0.8677963946841758    0.3684491579692780    0.9141817556242193
0.3695377364738126    0.8700514631838316    0.9142633911383382
0.5617565467186059    0.3456151406073371    0.7497108719587703
0.0609480215536680    0.8460012200484420    0.7480310468617576
0.1266055848711732    0.1239358701265869    0.6538398703890669
0.6256769628177061    0.6248000446020328    0.6533075436986198
0.7572045826526796    0.1513375286590928    0.9743965826204279
0.2583967206244529    0.6514735362847639    0.9744632039009870
0.4518607806177369    0.1205955665204553    0.8080944738497038
0.9521914814197474    0.6203140316581875    0.8076104571974225
0.2020783821538581    0.6351302666952516    0.8055647103234415
0.7018651889174161    0.1349558253633139    0.8055282108705168
0.8691433433029224    0.6255944054928382    0.6439567916542381
0.3696168943103844    0.1260185053497589    0.6422065596244939
0.5003257653154746    0.5816408964980175    0.9618242184343114
0.9999028099795738    0.0813938965198591    0.9599698848536644
0.1817205788539056    0.4960236022480017    0.7445112094358105
0.6819835689770271    0.9958254408902560    0.7438217330821515
0.8621953616207477    0.4174548431340848    0.5812189552966058
0.3642095256361490    0.9111959743125896    0.5819656408671271
0.5035907740988369    0.4628699944869983    0.9047078290965257
0.0029388333129929    0.9619990241540155    0.9033291338093591
0.3083384898282235    0.4011949324321251    0.7520235422033285
0.8097106349805421    0.9027300209850934    0.7517460929251227
0.9792170919868700    0.3972048181021546    0.5903879286792760
0.4801384024198919    0.8963612281072219    0.5891950444883260
0.6287310160608441    0.3645781969970238    0.9167294360551783
0.1287515150147076    0.8649561609573144    0.9153449938581792
0.3339502123597795    0.5019569481259660    0.8166425071877162
0.8330023322538335    0.0017352196575484    0.8165987683442406
0.0061265590969473    0.5072309918582382    0.6534968476224652
0.5057592530797436    0.0064567570324241    0.6545652472710807
0.6609537670082944    0.5270781826589011    0.9759527892817639
0.1601774382006275    0.0263026530398109    0.9751174123887723
0.3112074092745134    0.5961067012781993    0.7488890566806299
0.8119520596403889    0.0955057798644080    0.7490776451560458
0.9574647371577157    0.6090227750926467    0.5859132230624834
0.4623378268113033    0.1053847572482601    0.5859471394484330
0.6175086942830139    0.6175786562352659    0.9142572071003625
0.1177505402515801    0.1178892721307299    0.9131376860605220
0.2020308398598716    0.3705786178140810    0.8078369356089493
0.7018724298079462    0.8703786639092704    0.8076774136524546
0.8758349343094332    0.3732244161505613    0.6535008650382169
0.3768729013826901    0.8760498794257580    0.6547875968212246
0.5068221085778180    0.4033196485595691    0.9750670159614367
0.0076693257148438    0.9011596446418677    0.9737744385050227
0.9521524028917440    0.3855119546657167    0.8056184786837676
0.4519164100870364    0.8849466082827955    0.8057769472061257
0.6189957473450383    0.3741423403666934    0.6430827708650659
0.1201389708917117    0.8761817717190604    0.6409976666780586
0.2496906126625551    0.3301489643033817    0.9606845351497187
0.7494471995035822    0.8299002834044448    0.9612657058470658
0.9316471966784969    0.2497077736161879    0.7438434861219841
0.4320082009263446    0.7452618331042169    0.7438267412109503
0.6132423280448919    0.1637579156961741    0.5814018535723995
0.1141504431744853    0.6592778888725136    0.5809692036659241
0.2537775656497930    0.2084478344469511    0.9045504127012434
0.7527151009689778    0.7089228267068812    0.9046945210239568
0.0585393043926340    0.1519477803746967    0.7513219131204290
0.5591239165183470    0.6525961502152354    0.7519604616024382
0.7301662383698027    0.1462129616672623    0.5900773292094331
0.2302008957697418    0.6439023185737146    0.5900481855932029
0.3795753801110486    0.1142930626457725    0.9173417877161226
0.8786314384252499    0.6133200328755007    0.9167096502202012
0.0838577746294384    0.2524188882469643    0.8159435407741232
0.5833735488527880    0.7521449594204480    0.8168487402886231
0.7554972075587304    0.2560395631817082    0.6539832436003278
0.2542179019699593    0.7549668854193654    0.6554293512405318
0.4087652153487862    0.2761071431781997    0.9784774050784738
0.9096738568294432    0.7735288022509907    0.9762993045933900
0.0611174162927215    0.3465655018091343    0.7487338202949912
0.5611555672805154    0.8464438137173252    0.7494247741053328
0.7117603577296122    0.3559529841079985    0.5859444183208127
0.2208760338984219    0.8504880428894562    0.5875525663689117
0.3688193134615384    0.3699619111910300    0.9147968477088684
0.8681475108303610    0.8677082141376158    0.9134865360140111
0.9516466804292846    0.1209669820905717    0.8069326065630921
0.4518042922981444    0.6204254820280625    0.8077557453607846
0.6261620074278842    0.1240762486374787    0.6535159378286253
0.1268730023997098    0.6235730231088042    0.6534897342091169
0.2591268901433285    0.1509439864849015    0.9752422509819063
0.7599189754898190    0.6512358238885081    0.9758177072074169
0.9804212771729363    0.0180908891334976    0.0211086896577882
0.4809797025562865    0.5184342046578757    0.0236990228355572
0.6669315052237290    0.0022659549623294    0.1724947004955797
0.1650296125389006    0.5018021292644080    0.1724443709229344
0.3306355763969478    0.0135692647395132    0.3317131541903153
0.8320486770066156    0.5105734789984713    0.3322457628191422
0.9179942572760049    0.7543860263339880    0.1711317571406441
0.4158359959554191    0.2551195316697356    0.1743445063177566
0.5826925350298643    0.7595116678795039    0.3320451512006325
0.0804379497533964    0.2644570701809498    0.3328073340080547
0.2329020994933006    0.7678117887893222    0.0220776867928913
0.7319643883302966    0.2677744917416885    0.0226278951314602
0.1660511396590959    0.0040459862625590    0.1694564859863297
0.6681233240337748    0.5032384350247004    0.1715287478853652
0.8317291016876720    0.0107529042009071    0.3320734758378440
0.3292028124481400    0.5155598978753980    0.3350605480264076
0.4788634848907800    0.0184670868197509    0.0235461837321140
0.9840501213763826    0.5171504717399804    0.0222058204290095
0.9172036743701421    0.2534536815354461    0.1709709054310096
0.4138014638510854    0.7520384636373977    0.1734752447446334
0.5810578259103858    0.2609480280546910    0.3335840608958039
0.0817312659430921    0.7626245381272250    0.3329447055572300
0.2314823714529774    0.2678294158690418    0.0227225057483179
0.7314482803056579    0.7678514947660872    0.0229116390005500
0.1626698681188906    0.2218833940142675    0.5095925798743155
0.6598040347470171    0.7154216344406442    0.5093157098025994
0.8349999577672826    0.2500156961847682    0.8286251003124996
0.3349843845423706    0.7499713280947955    0.8287520171902524
0.5040979633728119    0.2479479545286834    0.6662222828179787
0.0036491842405542    0.7479952141233914    0.6652623011646314
0.0849149781283043    0.4998793243619431    0.8289815869376620
0.5852557210783175    0.9997698435669488    0.8290760481578462
0.7531299548792042    0.4980636472575474    0.6655124074526731
0.2541622438871883    0.9989298962638298    0.6659668079655771
0.4107413893598462    0.4641944557839274    0.5102012509486995
0.9115311705870000    0.9662271572909625    0.5091494154554126
0.3349374074582112    0.2500457859400869    0.8291524453590793
0.8348212364122027    0.7493869672406126    0.8286195335052604
0.0031999801769831    0.2485272830715670    0.6654988464852680
0.5038594454920441    0.7490581708225632    0.6658366433992244
0.6600114693692545    0.2157103523839647    0.5095060889489597
0.1604731525596161    0.7127186292348865    0.5088235349295458
0.0848493191920345    0.9997722542851778    0.8277128373550584
0.5850146121864963    0.5002196956963251    0.8289447307730028
0.7534941852573751    0.9981089813900272    0.6656838274272086
0.2538247540955383    0.4976761084054684    0.6658227356413804
0.4076625998459311    0.9698762178839172    0.5102177516135655
0.9132301732154035    0.4683593117661951    0.5088930831449622
0.1624079594342440    0.0088559556481571    0.2250486809719755
0.6669244151861122    0.5104667026952884    0.2266216314421317
0.8295603593811139    0.0127820565149187    0.3866795121508380
0.3261710649676758    0.5193670329107328    0.3901382913268139
0.5010053887154806    0.0223162907869672    0.0786937408336275
0.0030703183246870    0.5218450048794069    0.0773293574581328
0.8737671960558484    0.1215147557842941    0.3119783092887233
0.3746159398468034    0.6249451492665951    0.3161945834582823
0.5430011763472188    0.0404567873768664    0.4961883443826329
0.0460951325124308    0.5354693629060520    0.4925403485028250
0.2046273690237868    0.1180486551461862    0.1492248802862585
0.7058452769709118    0.6175307022637181    0.1504888580632857
0.8671720232778241    0.3889906788397446    0.3151632213171527
0.3670997551069318    0.8930800354356293    0.3148265777523389
0.5525804158612709    0.4199940805147882    0.4772965908057533
0.0525743148245075    0.9161858242908081    0.4778199163054679
0.2047911035180311    0.3844277107077768    0.1563623317457919
0.7054146892962465    0.8833763837049643    0.1581015632010211
0.2535072164378389    0.0205701703586524    0.3116162228386783
0.7548706597263505    0.5186547037962064    0.3127234400164701
0.9001087520073643    0.9523541238544471    0.4553528433143688
0.3994630755285433    0.4520732373384933    0.4563027438029736
0.5920118993529598    0.9991126608607135    0.1500055131692335
0.0904114355768495    0.4977103794503772    0.1488616822061234
0.0827545716717345    0.2521288235768532    0.2131039425797515
0.5816225283377744    0.7509766557128780    0.2138772381362835
0.7476000048549889    0.2679349557645739    0.3807129496523255
0.2487938120388797    0.7730801662902034    0.3807583034600135
0.4188665845338050    0.2608374211303326    0.0487475859458317
0.9192804914955156    0.7600223639026276    0.0453555628046009
0.9143046753044103    0.2581231902208133    0.2264252166273472
0.4102918106044758    0.7558810760976736    0.2287016623883390
0.5786786738635871    0.2636324360388604    0.3881980040094101
0.0788512499667682    0.7649982124984785    0.3875211746052088
0.2531364426185450    0.2734478003872754    0.0773967061502478
0.7522305706402983    0.7763760028077201    0.0778613913331443
0.1239273128325589    0.8745098755843184    0.3136528196519543
0.6245667788711609    0.3703577241385875    0.3137203636810299
0.7943786226166584    0.7895642608567358    0.4944952204910822
0.2986803138123930    0.2865627265569937    0.4957709648361195
0.4525450928998287    0.8667137186321423    0.1532795013081527
0.9549758076760796    0.3683541706710164    0.1507811049671475
0.1173637420187047    0.1436929499828888    0.3164256212161424
0.6184679258478818    0.6392198327038001    0.3144132303774883
0.8008087892503023    0.1651241835091136    0.4766815267823727
0.3026337597983447    0.6679945416711707    0.4780078008037822
0.4552520293827751    0.1370467079492713    0.1592311788949403
0.9569267017025612    0.6361125565508627    0.1562003486199623
0.0034805623639986    0.2703070010061115    0.3126495388906035
0.5053423497404722    0.7683564137559854    0.3127089165306425
0.6472044198784345    0.2038217494145607    0.4557295596091098
0.1515443441031485    0.7000809098560288    0.4547899591249333
0.3412830798175018    0.2541649906450409    0.1517046581294694
0.8427355360459373    0.7502527340523899    0.1490697559284785
0.9974271794144349    0.0202236530763632    0.3803316143583624
0.4984991864671856    0.5215166930808036    0.3816812976554532
0.6683787478897707    0.0106912877945944    0.0476856925933991
0.1693268083441412    0.5109543570469558    0.0465806456109121
0.3315725859069835    0.0030286194402603    0.2130369873003337
0.8340999307897038    0.5031336534401538    0.2127140466861360
0.0007521324985940    0.0259953905645597    0.0760731579873297
0.5027070652837695    0.5217523348679627    0.0786312639497817
0.6632245734114205    0.0095964846963849    0.2278038711265788
0.1645205199019339    0.5081944157222817    0.2268050800539451
0.3272318362589737    0.0159692436522745    0.3862907581667069
0.8305435195981646    0.5127160798142193    0.3868706954364644
0.8741393774914087    0.6210418625867438    0.3119382338415025
0.3721895122278123    0.1250177083012659    0.3119874460379625
0.5450663320347493    0.5423904880034818    0.4980276484030882
0.0463206812470189    0.0412500351582327    0.4961087743171260
0.2034750963024392    0.6152152671003813    0.1507077902373773
0.7049799653884227    0.1166690255275770    0.1519092166154007
0.8673553823149960    0.8897042740187945    0.3149710999840633
0.3669944850392274    0.3940492745086622    0.3195467005595437
0.5466014175399984    0.9203465143273322    0.4732545330409967
0.0505090136847857    0.4051394971678713    0.4808330903015425
0.2046105135771032    0.8869346768824720    0.1533554931569843
0.7067464932470767    0.3850376550392818    0.1558045052419430
0.0905852033276999    0.0022265979258755    0.1480625467708676
0.5926411870009833    0.4996258292895042    0.1497606166161935
0.7544442849216529    0.0188628532567165    0.3125937828342353
0.2560751164102665    0.5231081666387727    0.3118522493305154
0.3924222901546502    0.9596394611695040    0.4566194915296660
0.9047033109859126    0.4509303013732719    0.4551171053764698
0.0835332379554586    0.7526932233667333    0.2125854106095826
0.5822228867499182    0.2536014433301766    0.2143359150793719
0.7483097302371947    0.7687325147839363    0.3804893692953625
0.2465270257885795    0.2724031881048086    0.3812495996477807
0.4183560360470650    0.7600233538556924    0.0484302832387487
0.9185090457455454    0.2619559774859792    0.0456844328627702
0.9152955084462926    0.7607398053449382    0.2265092064067722
0.4118949143857895    0.2614864457149656    0.2295040552114065
0.5808877656464515    0.7617153644695811    0.3866405111565559
0.0765461285065194    0.2670186648034473    0.3875138962435170
0.2522646993425955    0.7711150826428343    0.0771608050645906
0.7529203159447223    0.2721477617592443    0.0775557607135334
0.9560006716689883    0.8678464579215736    0.1501726934693790
0.4560424561464178    0.3682283081568086    0.1536684980922915
0.6246812658682063    0.8713482049264168    0.3126607469411427
0.1227071134792263    0.3741561784951339    0.3125064271296996
0.2948109381040711    0.7908983699541986    0.4980564202870750
0.7946119361540459    0.2903584023585898    0.4948173653638968
0.9563852579538019    0.1366660139992277    0.1551672647402717
0.4548117755769156    0.6358326641760748    0.1572807134014138
0.6158941133224242    0.1389059020321081    0.3167530913957016
0.1187958195577622    0.6432815830517076    0.3157153514526612
0.3013921466064962    0.1631531472576934    0.4756249425700972
0.8010531303037161    0.6631802952081352    0.4776748933220579
0.0047827183118326    0.7701618367415166    0.3128465923624881
0.5039508629146433    0.2706875168808052    0.3139834924117526
0.6483119806621112    0.7031184910324012    0.4553148520103437
0.1458992817643937    0.2099463920158582    0.4564247643993507
0.3390422029314310    0.7462994917115372    0.1516059707259266
0.8420400507563045    0.2503089181833792    0.1488259986122074
0.8320915773105604    0.0032536150806963    0.2126927322577701
0.3316214617200942    0.5026698478002302    0.2133877304486276
0.4957489543103965    0.0194998835996893    0.3813715625897670
0.9981341575580019    0.5204340985769464    0.3794031265817132
0.1670422788247871    0.0103313690848695    0.0435036261196632
0.6689142868080200    0.5108366846746100    0.0452722779165926
0.3406262244898428    0.2495692987308558    0.7736854226446997
0.8399903375143295    0.7486911266818965    0.7731377162717358
0.0094047031476359    0.2443827248064067    0.6105513787793214
0.5110840335397067    0.7456129210475854    0.6109718688524369
0.6761242833771116    0.2310740780842746    0.9438815503381717
0.1756366976443715    0.7323134749098087    0.9438000840605503
0.0418834888862444    0.1368599595570409    0.6878968151025945
0.5419787841951076    0.6368702481384407    0.6884038196266978
0.6865580767197893    0.1006456510928172    0.5333604524383527
0.1876915278232330    0.5987086180216054    0.5331730285119385
0.3715935674845777    0.1345742120562770    0.8500589332131046
0.8718471896226169    0.6342109859109576    0.8495350154362411
0.0405742662709568    0.8655635442520507    0.6838353283730111
0.5406823777399066    0.3655029470928836    0.6854288185559798
0.7172766912085412    0.8263353652068340    0.5164672318638898
0.2215308144699492    0.3297742385337726    0.5157142565425975