Cl48Li286P48S240
1.0
   25.1819793006824639    0.0000000000000000    0.0000000000000015
   -0.0000000000000009   14.5388225279766061    0.0000000000000009
    0.0000000000000000    0.0000000000000000   37.2126966544236950
Li  P  S  Cl
286  48  240  48
Direct configuration=      1
0.0425589374328159    0.1186114882246266    0.1864398193117811
0.5415098767865372    0.6144483866188658    0.1881875485821101
0.7109164525659299    0.1570985232501714    0.3425195113080211
0.2060030491151293    0.6480052313745748    0.3445521956706229
0.3899202506333224    0.1203505476014934    0.0189562439343377
0.8903540288373063    0.6179930794121156    0.0198462497359211
0.0028758883632453    0.2685314959706268    0.2477296712520251
0.5051665746204619    0.7568796427037716    0.2480519575130576
0.6661470945550830    0.3297039898509393    0.4123914100452412
0.1652729623903708    0.8332679553627240    0.4078038422848205
0.3471764572057732    0.2944834640926473    0.0848251270507919
0.8462562426356782    0.7939239955862260    0.0877335705482610
0.0988022463643483    0.3878306973285143    0.2489724169978597
0.5986359543293291    0.8914827296253229    0.2477809320089029
0.8236273109736040    0.3556965392392499    0.4118586582487085
0.3241166162561183    0.8516651964582572    0.4086726439992397
0.4734717521976369    0.3700633027564295    0.0830696717316021
0.9745466148106997    0.8661253451559204    0.0871207706948108
0.1750080041995552    0.2434539090436373    0.1952521675264128
0.6729874602065360    0.7506852002763924    0.1896774493048042
0.8337433019820869    0.2500185222911649    0.3501392289185000
0.3326774587484916    0.7416706959223011    0.3493750122000011
0.5025557680904784    0.1961217802837084    0.0215563862053221
0.0019885103099975    0.6960129935489250    0.0243765305675144
0.0970137084548564    0.1201971341293003    0.2517838429763175
0.6200644696856882    0.6481278172380360    0.2523401331097975
0.7400859479221696    0.1537071011118077    0.4231112936310932
0.2396235206419094    0.6550345543106306    0.4232862442914663
0.4451819142061992    0.1532402254754454    0.0922537973056188
0.9423804612281099    0.6478075338429591    0.0946627896227141
0.0406836801717926    0.3773514918255002    0.1824738191962587
0.5406613328337466    0.8796344816609668    0.1817501966581934
0.7099796113294097    0.4048820722862711    0.3500354299644661
0.2099124062224895    0.8998847859648471    0.3472837703449909
0.4020940757209044    0.4220714673117284    0.0171543809379856
0.9019299384729985    0.9199996310601088    0.0244312404322167
0.9576458808403002    0.9076101977380518    0.3431578008890394
0.4579144873059506    0.4020969626912247    0.3445092817527860
0.6396524448183269    0.8702853952337206    0.0176518980774374
0.1407110696164846    0.3645936981350449    0.0176017086996630
0.2936781821973735    0.8665522053571213    0.1875681850891873
0.7889877429657993    0.3694782450679459    0.1864740484008578
0.9167367350747418    0.0795100691577770    0.4133075644670957
0.4155546818714388    0.5802956085286947    0.4113910404609799
0.5960203972456453    0.0418735140885386    0.0850293445561763
0.0943787924465462    0.5396883953785391    0.0853122036826005
0.2577305516458732    0.0166377337057353    0.2479063133193593
0.7537873614113689    0.5212567117357734    0.2471744786796508
0.0764108509003636    0.1031882423236463    0.4100332515334286
0.5740243186153642    0.6028981126280717    0.4105646334952318
0.7234491427364228    0.1153294783914767    0.0850419527084356
0.2226481773583374    0.6146880610201714    0.0850733160872714
0.3502038743150331    0.1423951722305239    0.2479447347739127
0.8465742401720805    0.6412636653301574    0.2488501724352074
0.0832168044302179    0.9940838590181104    0.3499254174807382
0.5824277897662159    0.4967522604400497    0.3500046237472528
0.7518603748720528    0.9474151105070105    0.0227137028143697
0.2524141660168066    0.4470802199861537    0.0227996099160418
0.4272092768746040    0.0011716820084207    0.1918895400003299
0.9242208535092146    0.4993894128894411    0.1946616919913889
0.9842737582756953    0.8932758811278695    0.4209021715007316
0.4865668685299581    0.4057064104090181    0.4245937307446656
0.6929825248909101    0.8997066807769238    0.0922014789234315
0.1924148603681542    0.3959329592417592    0.0928335822528030
0.3672177686597230    0.8940170636964470    0.2521888307408389
0.8542469977345439    0.3831052281869533    0.2519406168703677
0.9614168614316031    0.1510759832101267    0.3499335585874685
0.4586549617871657    0.6506820065553773    0.3486036114029736
0.6529782248759397    0.1724370627442004    0.0193109624836214
0.1526663221563512    0.6693391478553916    0.0218982680928846
0.2927627897959613    0.1293771669455961    0.1814374195535895
0.7900302126757326    0.6295848801011363    0.1815861075002663
0.0432349320926494    0.6153754707684178    0.1882121634801763
0.5437058390224905    0.1145574729867321    0.1883276838145474
0.7066823778802214    0.6529358379558146    0.3450012300624851
0.2077610664828105    0.1533035888735538    0.3435830672819462
0.3880183486384453    0.6223846176454679    0.0144999974870491
0.8899334655521596    0.1155193169255598    0.0201429348410289
0.0048406447885386    0.7543438031406282    0.2492479584498496
0.5078000231173470    0.2830699321874408    0.2480399054858218
0.6638855759458250    0.8338480249028605    0.4110985230325768
0.1664928670347663    0.3270402122406864    0.4117375090400127
0.3455053470220569    0.7964491571980634    0.0837190832724658
0.8452948806941222    0.2866616617921998    0.0881796984932816
0.1004227848129814    0.8909568825719283    0.2496824007042405
0.6203288970604875    0.3708837912821386    0.2490703090077825
0.8218635785971073    0.8546839362423313    0.4110069648694146
0.3247007526732574    0.3519502929244716    0.4100173838388790
0.4721727825233591    0.8688758700159732    0.0829213174731567
0.9712388173843929    0.3654068568823921    0.0880836709501671
0.1749286951424113    0.7508892684955382    0.1916146514312536
0.6748053912456839    0.2492975602181854    0.1891303771267169
0.8319774283944464    0.7460075689504121    0.3507957012340346
0.3334737280458169    0.2436692419718859    0.3496154220236308
0.5017803921376834    0.6968479363073981    0.0216543003912739
0.0028521832508703    0.1982355784576487    0.0241396295141388
0.1160447007189034    0.6427813291143821    0.2530604478614170
0.6157862947068007    0.1406800333827784    0.2516623380853247
0.7324794203406509    0.6572625147807626    0.4249233668117562
0.2406152528966912    0.1574153812977878    0.4247071522516208
0.4408210779405213    0.6501055887853128    0.0903617953424628
0.9449815978098297    0.1454428607617199    0.0926834892002876
0.0427604115511191    0.8847665146661228    0.1850877275583398
0.5423546632811762    0.3849238215989495    0.1832566146618838
0.7097714786201388    0.9044327894738000    0.3482331780856024
0.2092012139751157    0.3999788070743147    0.3484992967379716
0.4014271580321909    0.9209073844741480    0.0166261210459855
0.9011609971645643    0.4197668119522358    0.0253414647244544
0.7860664623208095    0.8714418654373334    0.1926772908014748
0.2937021500958688    0.3643453973623509    0.1873957716726573
0.4585541638618488    0.9049075997663347    0.3432259041428249
0.9558400057816693    0.3962060098175509    0.3455483996864856
0.1385135491259559    0.8685402571305789    0.0161446357297680
0.6368534320279963    0.3730523457285289    0.0116865112011353
0.2554504584861964    0.5103321007208784    0.2473870550188918
0.4165364881101142    0.0799139126450729    0.4114524066777367
0.9142367941756544    0.5818581205877970    0.4120234241527214
0.0978850253581047    0.0462929809716135    0.0858205126274224
0.5963590757807395    0.5466293876704228    0.0837167808999772
0.8478580249776834    0.1223316007493282    0.2529541922652350
0.3478348556930335    0.6410566269066219    0.2476452700566759
0.5753727019706703    0.1022987833341344    0.4105061537155106
0.0695354170822165    0.5967157889172662    0.4092769222144815
0.2249736983032476    0.1154259352177560    0.0841567994306936
0.7230091497686563    0.6173652081004513    0.0820972538183921
0.9098968615554248    0.0023606390379434    0.1806476474267749
0.4251861524879080    0.5024870957613431    0.1904202564213736
0.5839522633298118    0.9966444155078111    0.3496021182585107
0.0806807956727477    0.4891162922136548    0.3502760093530526
0.2524592201525974    0.9445745283179471    0.0224056635410625
0.7521944456651959    0.4471407727554878    0.0220955346997081
0.8613172475479568    0.9012201063055263    0.2548905940090417
0.3684790776887836    0.3966054956433545    0.2516214402272281
0.4901866058040722    0.9059147039671437    0.4240765428111228
0.9773412664449607    0.3991539162886616    0.4244593280834881
0.1918975448486797    0.8961550656304965    0.0916313003270260
0.6904804300040707    0.3975726787783065    0.0889516381992609
0.7824435081958135    0.1274317249433432    0.1893220393251229
0.2914505012356446    0.6305906650948512    0.1813629668467817
0.4600144183306115    0.1514168555243003    0.3482846238680400
0.9574442403737317    0.6490615828609929    0.3488766890022668
0.1535329867533019    0.1693592546416354    0.0200325533879877
0.6518932063630299    0.6727484093447123    0.0161807941800785
0.2036067654290150    0.1333955810056562    0.8076666235145686
0.7046120195491196    0.6371034474525068    0.8063950170956823
0.8681213805346875    0.1281375681205585    0.6397853017115535
0.3715485701206453    0.6230217831540377    0.6454679096334947
0.5016042610935635    0.0760386567348416    0.9597359979421971
0.0025876830209373    0.5802193708181244    0.9618748244360649
0.1813385896107378    0.9972804643897599    0.7457205365598812
0.6808197112208674    0.4944478347938160    0.7461189015876903
0.8652031358800282    0.9188960643819249    0.5810574719999311
0.3564879975126338    0.4227735929080381    0.5828421379114549
0.5045274897122826    0.9531154151541765    0.9038153671971736
0.0040104134796215    0.4626272764844027    0.9045863570682172
0.3099373278826448    0.8993653222483662    0.7525845418109531
0.8114233026463512    0.4026626784044264    0.7532913315780705
0.9817434414680722    0.9002730450668764    0.5913640243165442
0.4740996910893351    0.3907037382380414    0.5896456750366729
0.6267364620948237    0.8539067243917667    0.9170004149698040
0.1273440965019750    0.3574650974821556    0.9175166619868513
0.3349696151383714    0.9972760792336200    0.8171859995262775
0.8335086562743351    0.5013528520451603    0.8185878488334172
0.0002430881006086    0.0010976103938007    0.6606019042095898
0.5070263109523619    0.5036584951148384    0.6526388988652309
0.6599969570141300    0.0325516573840865    0.9733948834740109
0.1590938614671209    0.5279940917639928    0.9755210789666008
0.3098408072374069    0.0943814394501689    0.7511652162103680
0.8096084906322041    0.5962805632814008    0.7511139336275308
0.9823432531825470    0.0913550622867578    0.5928522784945987
0.4660435129107932    0.6018673659709428    0.5863040600957605
0.6175998390097102    0.1120953647851334    0.9123562793722501
0.1193324613443054    0.6135236783392599    0.9135535235346365
0.2027403574637321    0.8697253405714489    0.8096611821555082
0.7045544588966338    0.3654639983077101    0.8084051085318502
0.8775322637378011    0.8773045920455841    0.6562934776809923
0.3796423208116993    0.3883634254387393    0.6616820738261825
0.5081410177450918    0.8964386817650386    0.9752847754149869
0.0054950161372299    0.4021120510713430    0.9750166639292877
0.1197056101596542    0.3800441020964650    0.6406879913373386
0.6209707503434289    0.8789274030721765    0.6410333295660328
0.7531305375717466    0.3287992002502396    0.9609729913910425
0.2539897598697214    0.8282010821782986    0.9601882148064343
0.4567400816649235    0.3844013506391350    0.8107180602832187
0.9530254957347424    0.8859809267492548    0.8078452789921465
0.1129155479012843    0.1779527504546786    0.5806317527524947
0.6103881329047232    0.6694399649026239    0.5819164102705093
0.7546435769343737    0.2066640957855122    0.9056286581230483
0.2535502357391390    0.7083823570778321    0.9034334241404191
0.4289789903486503    0.2432124277354598    0.7465391863073917
0.9309331998406872    0.7486150650555357    0.7457320540067152
0.2313093858042976    0.1528110348441903    0.5902633462976266
0.7273812743794705    0.6417861504879286    0.5906615169774462
0.8792082287369959    0.1076062293848851    0.9186980807476754
0.3774767526680157    0.6012845189686510    0.9153280446024986
0.5661412985232024    0.1685090048742816    0.7504581868093484
0.0610986033804417    0.6546688707328970    0.7535425869642288
0.2534463240380396    0.2558029147593808    0.6567756929167377
0.7536597729946196    0.7505653464392420    0.6569453540364542
0.9091125102871780    0.2790296733826076    0.9771109871693267
0.4114818891837247    0.7853146013709374    0.9702652830819922
0.5870249493171072    0.2566738634156879    0.8145112719748606
0.0815720576074596    0.7535837762720142    0.8189681896581759
0.2291741542637727    0.3454032568421339    0.5900635823059291
0.7308837018324282    0.8431280844890179    0.5904365981101278
0.8699017409557804    0.3645292780585650    0.9144196509575876
0.3677926397724258    0.8571730446156972    0.9101963938889741
0.5226125297818363    0.3869608974720166    0.7495165478735865
0.0604680175021983    0.8476676534922141    0.7516003646824189
0.1297425306987571    0.1328087290351715    0.6573422017906383
0.6286726839823201    0.6244175114916418    0.6552756319851252
0.7574266513766627    0.1483349887609105    0.9759172885470402
0.2561772427270431    0.6491529565637915    0.9738760642475497
0.4561907723977514    0.1245012397891342    0.8110219022442848
0.9533468190138871    0.6204137973505471    0.8098932894091181
0.1965176535988088    0.6326990921081883    0.8067853338526002
0.7023686243288227    0.1332133272662084    0.8078181289475597
0.8682678425945394    0.6282134386738289    0.6398321295961114
0.3712187791809272    0.1241921219089602    0.6453853437377963
0.5030862296598996    0.5755806703702234    0.9606360586775583
0.0031576048767836    0.0791137967705064    0.9630513560785349
0.1817567551220608    0.4754214379013213    0.7429928845102157
0.6805153593033166    0.9934791175357741    0.7470026693696288
0.8617535695434774    0.4207457716547884    0.5819244504928540
0.3613500351139705    0.9256508703843981    0.5806678421787321
0.5063724108704931    0.4482436368148340    0.9070244570431005
0.0044700006752060    0.9602008110132908    0.9061182880852533
0.8047289083372984    0.8978305130121775    0.7535845001487801
0.9792102552807447    0.3961848224834540    0.5899158604208740
0.4793232566196258    0.8955751067248581    0.5901475375019150
0.6291858859264386    0.3537380296314069    0.9170636389997073
0.1284532279616718    0.8584326105421226    0.9177037852446701
0.3197272177361101    0.4884220552735156    0.8200365126841683
0.8351390304221319    0.0019129440235950    0.8181072600256006
0.0031192742422279    0.5023877299233140    0.6570941102163962
0.5045749974889367    0.0024094706131856    0.6556769185912323
0.6631813953928339    0.5351022305352460    0.9722978587811621
0.1614420988734607    0.0309055154517093    0.9742983902405097
0.2937235743490174    0.5899473280076335    0.7471163432082450
0.8068756144018751    0.0975170609455754    0.7514077108224246
0.9800562306921858    0.5929317702509866    0.5904424664284871
0.4716782901792733    0.0988348993696573    0.5881716685227794
0.6173215181047608    0.6100847081012495    0.9130521765988200
0.1179500157967763    0.1137461144497632    0.9142448679839111
0.2044907180467124    0.3666507788813035    0.8087307305910200
0.7024858416149946    0.8683268812186717    0.8101475197529000
0.8801803069882321    0.3824183185726047    0.6583146511081159
0.3776718244921241    0.8773301470983226    0.6557261700212592
0.5081781820750481    0.3953716532057783    0.9774387786273655
0.0063260464454328    0.9015207943105471    0.9767420059187247
0.9499508452865655    0.3804679796251942    0.8071449708974051
0.4550813759102596    0.8811633122062059    0.8067678651233787
0.6212156244835341    0.3802441573232215    0.6399650726659357
0.1183855047607390    0.8863471477381465    0.6401897088042763
0.2533561425434824    0.3282599433485705    0.9610611667044257
0.7518223530066211    0.8279302832516654    0.9613537399171532
0.9314193920648871    0.2290584446953375    0.7453983920197039
0.4289910428970058    0.7550361570303309    0.7456674539131988
0.6124565149834780    0.1675388393756690    0.5808551130131642
0.1005586059150437    0.6757515185890189    0.5887710067209770
0.2536434922106053    0.2070911959856361    0.9050953761499290
0.7542765825370846    0.7040898803999732    0.9060356792153119
0.0639184078501574    0.1579486886673616    0.7527319886709730
0.5206118797648376    0.6096664282519081    0.7515354724380039
0.7301780316570337    0.1446990689843509    0.5908645842712980
0.2253126016434075    0.6503971135866521    0.5887968232995244
0.3768308985752908    0.1020222769144915    0.9172122745493797
0.8789289857589232    0.6087085775385784    0.9183138897209572
0.0841357843949396    0.2524130776338015    0.8174278151564511
0.5869708341656990    0.7440143991127787    0.8139539404092972
0.7515819274453317    0.2496005312324619    0.6584043055555941
0.2509874382801056    0.7553131085031691    0.6556236382354056
0.4108055223131192    0.2816914796353716    0.9725314635159361
0.9095520748059978    0.7815968176242214    0.9761063369047668
0.0488023807602569    0.3560499074902113    0.7504795007814741
0.5652477234212853    0.8283140680739344    0.7479238215525272
0.7324003614271841    0.3408358106167034    0.5912666005983288
0.2323009801879277    0.8488882082727427    0.5911308948343177
0.3693921716773959    0.3589036615723869    0.9113060011984060
0.8691124286252876    0.8650985821305273    0.9142639697123486
0.9540311956667598    0.1180404642687409    0.8104325128884990
0.4552154091441699    0.6171966403385050    0.8118171041422040
0.6272360207252737    0.1264664510892211    0.6554277518914693
0.1317294915698315    0.6394307698424821    0.6598021798061401
0.2582586461375608    0.1486571582195833    0.9757927943812131
0.7592515353122402    0.6480831500813404    0.9771115275700963
0.9796930824719169    0.0207848902837325    0.0246380909889622
0.4823198988859702    0.5194251349817530    0.0225103467036230
0.6642286767964469    0.0038767240589000    0.1708961959418042
0.1666265352418396    0.5026094821596178    0.1707155087076128
0.3312115487474456    0.0120136892810582    0.3325909803731499
0.8300733841464538    0.5139988093410046    0.3324787801686713
0.9163232587043028    0.7569121177394451    0.1731361211339135
0.4187136358419501    0.2555338628349567    0.1698632146893665
0.5799276851309400    0.7635347318517178    0.3325880648158556
0.0816762364258382    0.2607161810064649    0.3322165372392026
0.2321508582653903    0.7679922620314322    0.0218307919158031
0.7336625463674625    0.2693468409162034    0.0227180519696172
0.1688424757092781    0.0038052784640587    0.1704638974159276
0.6657896453045287    0.5061373826392114    0.1682762073361672
0.8293914313234582    0.0154273541791863    0.3358283429888821
0.3307308730006023    0.5118744062631697    0.3320449656380620
0.4816187163183404    0.0186671581889898    0.0216065652433460
0.9800177185621132    0.5191644359621792    0.0235758439607298
0.9138323607773213    0.2523927664401618    0.1723968941663393
0.4168308765465429    0.7558193088631682    0.1689942076622660
0.5818344786621676    0.2636594205133708    0.3331584142529436
0.0793774612432718    0.7603179072804175    0.3331585760990017
0.2336118550042819    0.2684762443739463    0.0230609654531945
0.7328322973085252    0.7692572326521337    0.0234892200152571
0.1588318422238460    0.2150110603230184    0.5086276729405622
0.6614310760227416    0.7231081836746446    0.5093640339229648
0.8358290843393392    0.2476054998242724    0.8303778535005519
0.3333438501432486    0.7401055247606256    0.8264490685781145
0.5036382941358163    0.2488888773124593    0.6660240791766193
0.0059935808232354    0.7479922510664420    0.6671554899606061
0.0836243517945836    0.4978277720988451    0.8288907365210630
0.5842264660354801    0.9972375280158650    0.8281892452615405
0.7559525775416780    0.4968361428680417    0.6671679455283127
0.2543484302729689    0.0002889278009215    0.6664527149495439
0.4102617461777589    0.4699310807539211    0.5082505176783232
0.9146827983915752    0.9606989664399017    0.5105592507934957
0.3361516911891745    0.2445146406126993    0.8277793369893428
0.8360527597460214    0.7489776285804459    0.8304667773015790
0.0052028856035975    0.2489762254388463    0.6664940606306179
0.5039620742765425    0.7456680568813798    0.6655837747180157
0.6609068119934769    0.2138955853000393    0.5087952516216872
0.1580841611287804    0.7375561514970962    0.5060169091493582
0.0857811129320443    0.9999999129467130    0.8300185631280129
0.5877901806179464    0.4981450625293202    0.8304475778125828
0.7549691121248769    0.9972671876385979    0.6674117250451841
0.2532841169118291    0.4992250946002333    0.6638285347692008
0.4133298378321886    0.9688457111812355    0.5084461242796120
0.9059504541581698    0.4688685464423313    0.5096668897876212
0.1676446551225033    0.0100753789686317    0.2256298609598793
0.6628767210613639    0.5106029295121549    0.2239433837464714
0.8283611926096525    0.0203757229658724    0.3911242744056802
0.3280746867690401    0.5175685100380213    0.3868277003064836
0.5014913543929747    0.0276063499563991    0.0763880454501003
0.9999659420851664    0.5229160708734691    0.0788766185008634
0.8745671643882823    0.1237053823830214    0.3158682830869363
0.3729162400867194    0.6215777196508165    0.3112634324185621
0.5481065044879863    0.0320366631112648    0.4918073992481935
0.0388784004336602    0.5468236772995688    0.4931387535486389
0.2064057752720013    0.1180221100861743    0.1493327468453172
0.7041710097770558    0.6199066459985221    0.1477751128564206
0.8662352934904822    0.3929965332262972    0.3158909481292612
0.3671137411169177    0.8902879885044072    0.3165344591412372
0.5506563576245673    0.4087252850291433    0.4776411289372972
0.0569014137265988    0.8886487996408244    0.4855292415648416
0.2052851054026558    0.3842191776674382    0.1559660534405576
0.7041235754344757    0.8867398426466074    0.1547829197853785
0.2542988384683657    0.0196019168623276    0.3125302259889647
0.7530531574316396    0.5210781742670680    0.3123898452211100
0.9094862203356944    0.9474308257228600    0.4565848049995485
0.4012819224011215    0.4516257830776351    0.4545992243568702
0.5895836798913383    0.0000804137824517    0.1473511742254740
0.0914256634995577    0.4998844864985822    0.1486723923388275
0.0819707530724892    0.2517103057356024    0.2138431578454449
0.5823380993478199    0.7526272903106840    0.2126223021118611
0.7489664245519358    0.2755153010909407    0.3805581548232638
0.2475153437611236    0.7705011134780536    0.3786963402528296
0.4194805420551001    0.2664569794794577    0.0437465062939104
0.9188147190799683    0.7643320915066633    0.0472083735342280
0.9105689465715457    0.2552767834859530    0.2276920046982606
0.4137928426902193    0.7598024791535262    0.2245632046441041
0.5789812604172788    0.2679659258308452    0.3878940345877503
0.0768851055092870    0.7647780079159079    0.3880185963398199
0.2529406290965433    0.2747057434014484    0.0781247017985993
0.7524222180793029    0.7762902994411702    0.0782752533566317
0.1227838699436696    0.8694609746852490    0.3131279398354976
0.6243045639722546    0.3749315305845479    0.3136358371780625
0.7963710056981166    0.7900486711757031    0.4946710388481848
0.2908811105902591    0.2919481041738876    0.4920789916712203
0.4548831281369978    0.8700645171296428    0.1485897425195975
0.9520406775592352    0.3677142367322283    0.1523767309540572
0.1174343178475781    0.1395557210505786    0.3156749041646613
0.6161718525719230    0.6419707277115319    0.3165848024808109
0.8023685119914645    0.1682730851424240    0.4773658354337613
0.2963151119445717    0.6617987457133664    0.4815676917975986
0.4578731339397071    0.1376885504115772    0.1549012172680771
0.9551820798137507    0.6386107093907456    0.1576969924355602
0.0045901140479885    0.2680463161596204    0.3125265583090532
0.5028547289344028    0.7697100233565848    0.3125577803417418
0.6558071662233540    0.1975089965840346    0.4547621719416153
0.1518424069646293    0.7137246545371735    0.4535222407505795
0.3434552369423765    0.2512374110885349    0.1478194724654943
0.8415063255537405    0.7565183162627886    0.1509267877726720
0.9992543037535315    0.0206503279667419    0.3813375639711424
0.4976519395778067    0.5224775817811207    0.3803097471837738
0.6683634185302042    0.0157598871064194    0.0441143466528183
0.1680314720417474    0.5124980846994629    0.0451656273730897
0.3349315591704502    0.0040340417405345    0.2125829127634579
0.8317497375533596    0.5036455268892843    0.2128894642438113
0.0046029610422973    0.0224669922822519    0.0790363633243568
0.5018806695809387    0.5283893953552922    0.0772694339188846
0.6631253835601291    0.0094060411409565    0.2253362104722441
0.1635137498916906    0.5091639246849998    0.2261579585451162
0.3288722536187916    0.0170834560312788    0.3873864906286928
0.8274928965031817    0.5189399026192608    0.3872141340928618
0.8718448428705312    0.6249271326723428    0.3123528363992337
0.3735544268329816    0.1216465664012612    0.3119423833789940
0.5464374392275494    0.5364315827029962    0.4937331507888257
0.0523199225440542    0.0229584271271140    0.4979562618745841
0.2047362887816001    0.6166641917860299    0.1499070668985291
0.7029357516146869    0.1171977933732103    0.1493424965163634
0.8665067470150735    0.8937735308976890    0.3197052901304718
0.3672023720394098    0.3906589685084572    0.3160399175780572
0.5522162957420081    0.9012322408527079    0.4798284163676014
0.0465608377789906    0.4214316982746701    0.4753401814793737
0.2075554785448602    0.8860681633638806    0.1543881481416546
0.7041248418128235    0.3890193304659547    0.1519597491560949
0.0933947494165739    0.0007860268160316    0.1487131087077412
0.5901916221482399    0.5043476022611496    0.1471246351154887
0.7556251721774390    0.0234752979842284    0.3136691607846840
0.2537033405843721    0.5180987619913436    0.3120560510783946
0.4050116225130443    0.9496974977973914    0.4547586821519273
0.8973588321967043    0.4542934264396884    0.4556243788658590
0.0830935205066824    0.7534316059154261    0.2138954122881066
0.5841867437561421    0.2546355531931585    0.2125683065743140
0.7465697327441007    0.7736229942810513    0.3806532251689291
0.2487078575657104    0.2721598589021895    0.3797073943722946
0.4181046506084664    0.7660588525217737    0.0427592095380697
0.9181541432103271    0.2636055211800620    0.0470889611160538
0.9126616263790372    0.7627444010120750    0.2284254202683996
0.4158187832228031    0.2617852312611188    0.2253228360841888
0.5768915589029041    0.7683660952656698    0.3874203621419609
0.0798480240677376    0.2662587678013681    0.3869625241120356
0.2513911897212081    0.7724351213273287    0.0769806589658370
0.7514477988998912    0.2739973227927739    0.0778219316253591
0.9568698665286020    0.8694340726137659    0.1524460975121009
0.4567505873164512    0.3685388676299404    0.1485495373081852
0.6220905055352470    0.8729866756037906    0.3119127362440247
0.1237263503800244    0.3716812218145568    0.3121545992675097
0.2895226122056469    0.7950354978414015    0.4880643917917085
0.7941577577867486    0.2929879787611767    0.4957231743093241
0.9555406522668015    0.1375419368871633    0.1556228304957921
0.4561105087870114    0.6390530873669691    0.1531828288204159
0.6185261302212951    0.1437064397714083    0.3163725433774684
0.1146947563934657    0.6381232293485609    0.3171614449341569
0.3001355653091610    0.1624449475555564    0.4793424468603147
0.7997430593373862    0.6645008752426569    0.4763328005088822
0.0025910603829577    0.7693883955582723    0.3133535422875804
0.5050153362784063    0.2711759635032779    0.3128441802155580
0.6499349320061496    0.7069640784323187    0.4558201630647949
0.1553224461143491    0.1947602843189790    0.4546040986592638
0.3415749620498070    0.7528244672699024    0.1470737940770801
0.8389979395002263    0.2465396181543633    0.1506593230722320
0.8324235573932355    0.0034721880119091    0.2122773460913597
0.3328669320942185    0.5036785646722582    0.2118909990008030
0.4986278246418512    0.0230590786674080    0.3797844611797416
0.9952995398571003    0.5183475531021714    0.3803021449093967
0.1695412512494165    0.0134501858318007    0.0444171979536130
0.6681769042238581    0.5157189065457539    0.0423236669814718
0.3391049994191163    0.2453252033782452    0.7733274146808954
0.8401510838795425    0.7483069308638765    0.7748701538926911
0.0120757236472973    0.2463473318668015    0.6115986873541116
0.5091384944249694    0.7427369137328972    0.6104143457480028
0.6756947330493985    0.2181035425035136    0.9454846698166415
0.1766952341075729    0.7235854267787787    0.9437634625231238
0.0428412027505893    0.1361262521404731    0.6889814640009242
0.5419484589488474    0.6335452562638186    0.6878993113914604
0.6823539740941179    0.0993622850263530    0.5352476050926008
0.1604275982412535    0.6257579508546789    0.5369668620392501
0.3741595647822824    0.1308453097931635    0.8501387445412802
0.8734540914998902    0.6338789425570638    0.8510773690259625
0.0434640470586649    0.8639132711649887    0.6865657355699399
0.5414878809440193    0.3654593364277744    0.6844807704577833
0.7203452257790576    0.8294719759437087    0.5178177478266804
0.2165336618581244    0.3238956976907121    0.5183225621395399
0.3730009602479616    0.8538769171403938    0.8461741516729783