Cl48Li288P48S240
1.0
   25.1819793006824639    0.0000000000000000    0.0000000000000015
   -0.0000000000000009   14.5388225279766061    0.0000000000000009
    0.0000000000000000    0.0000000000000000   37.2126966544236950
Li  P  S  Cl
288  48  240  48
Direct configuration=      1
0.0420330615898809    0.1146689998462772    0.1865821712774079
0.5420332118508596    0.6146682285524994    0.1865827678649859
0.7066439745460106    0.1411353353193489    0.3471653471607174
0.2066438921036424    0.6411343504520748    0.3471652505224736
0.3935434201010241    0.1065679731475798    0.0138536090715418
0.8935430930403778    0.6065656355593289    0.0138534391481339
0.0055729052147153    0.2564325960815523    0.2477814489265070
0.5055728949808703    0.7564338862144547    0.2477815672311068
0.6666289813246941    0.3253597402362153    0.4103397118342026
0.1666284440736975    0.8253609317656241    0.4103396027535489
0.3463590892826180    0.2852614774202741    0.0841586002404029
0.8463588930328183    0.7852540843840841    0.0841583491478223
0.1055256611655634    0.3800428453293541    0.2487960369722199
0.6055257653777224    0.8800426778353176    0.2487961339864791
0.8238477656283574    0.3491206365112374    0.4102732018820086
0.3238482819317202    0.8491183280502965    0.4102731010599009
0.4722464673692956    0.3637409396729301    0.0846379995970732
0.9722455238536281    0.8637398236358400    0.0846387722360398
0.1752698889272388    0.2493902170729075    0.1908313354824390
0.6752697921311622    0.7493908043843652    0.1908313049559032
0.8335839641462520    0.2412310618404331    0.3499240273975559
0.3335830653099326    0.7412298461972787    0.3499237428461303
0.5038954200883325    0.1958346372563623    0.0238820897287739
0.0038960281120552    0.6958337599290867    0.0238827089512556
0.1146429676725781    0.1395349508230981    0.2516584464954968
0.6146442095423850    0.6395361349676746    0.2516587654710516
0.7370760910075550    0.1555008217726837    0.4267180759237917
0.2370733116270456    0.6555005010573797    0.4267178645982097
0.4414103433177506    0.1410141484899634    0.0907957392025036
0.9414122976238855    0.6410120461174345    0.0907954403442987
0.0401564962832711    0.3814006567167653    0.1832344321158872
0.5401564514877591    0.8814003248200151    0.1832344990627685
0.7108000296109241    0.3948024009759884    0.3476491553113728
0.2108000617360147    0.8948016197196007    0.3476488282078282
0.4039749284532138    0.4165308974301742    0.0185805690249429
0.9039757644600142    0.9165293433802398    0.0185813035629666
0.9566443953844780    0.8911354168015491    0.3471648024785291
0.4566440475474832    0.3911343826484118    0.3471652295884342
0.6435435849951253    0.8565665598457826    0.0138535029920681
0.1435431523059744    0.3565665409378773    0.0138533938830463
0.2920333133146256    0.8646686161939057    0.1865825658043623
0.7920329858291387    0.3646689689851547    0.1865823402856412
0.9166296952495955    0.0753604256890545    0.4103398128368201
0.4166290815884853    0.5753601867377566    0.4103396203933445
0.5963583361356789    0.0352547560711380    0.0841584015747374
0.0963592066856215    0.5352580329930874    0.0841585225115949
0.2555729268109598    0.0064337249221772    0.2477815245074805
0.7555727556744329    0.5064329934557997    0.2477816231352061
0.0738501016064887    0.0991170417948471    0.4102727614539509
0.5738493721922383    0.5991174040849684    0.4102726871910096
0.7222455637154426    0.1137396421822794    0.0846388603052319
0.2222467050786078    0.6137397132849965    0.0846384574034347
0.3555255004583015    0.1300436557397824    0.2487960630988640
0.8555264951212252    0.6300419763593511    0.2487961712677318
0.0835831031761920    0.9912307240281899    0.3499231384075093
0.5835832227860813    0.4912296958864525    0.3499233025566219
0.7538958385538119    0.9458335449346065    0.0238828910920406
0.2538958299190283    0.4458342411078267    0.0238824702289231
0.4252698714599041    0.9993899475287288    0.1908313677030920
0.9252697384545409    0.4993902015006876    0.1908312652042135
0.9870738620439465    0.9054987211326845    0.4267174927375150
0.4870748413734575    0.4055002781150631    0.4267177089192269
0.6914118109619573    0.8910121577795836    0.0907954724751895
0.1914111237328062    0.3910121909847937    0.0907954597871593
0.3646438983417962    0.8895369239954038    0.2516591282078613
0.8646430121899966    0.3895348755971040    0.2516588470130063
0.9608005665108224    0.1448026021301352    0.3476493133639323
0.4608002442631643    0.6448016603473818    0.3476489300875140
0.6539752629904010    0.1665298672164980    0.0185815336487425
0.1539758463946225    0.6665298099626551    0.0185813678735383
0.2901566482855151    0.1314005465671734    0.1832343209226343
0.7901563643420620    0.6314007210119219    0.1832346548265026
0.0420331724362441    0.6146687523696241    0.1865823112322180
0.5420330890539394    0.1146684452517113    0.1865827801642775
0.7066445989724401    0.6411340997127382    0.3471659441820600
0.2066441952440544    0.1411346013742047    0.3471652232637781
0.3935434303818891    0.6065684824616810    0.0138539187337955
0.8935430460547975    0.1065657088496720    0.0138532628394795
0.0055729102503723    0.7564331154790240    0.2477815510814229
0.5055727542882935    0.2564347285010631    0.2477816472018046
0.6666287403788328    0.8253595926136155    0.4103396606011894
0.1666290953987093    0.3253599641863904    0.4103395353808285
0.3463592946017195    0.7852626832910715    0.0841588602198818
0.8463588218821567    0.2852551792161243    0.0841583401643112
0.1055267913426195    0.8800417900112710    0.2487960991606344
0.6055255982385357    0.3800427735432744    0.2487961521690503
0.8238491925371020    0.8491200957610939    0.4102729264455975
0.3238494767633839    0.3491183643636965    0.4102725497514271
0.4722468973354890    0.8637404193290943    0.0846381912572077
0.9722458498293099    0.3637393834190607    0.0846387927087436
0.1752697467161274    0.7493900781570709    0.1908309810043249
0.6752696906650504    0.2493907523927547    0.1908314466017431
0.8335835131054977    0.7412303307076084    0.3499239548864956
0.3335829654909714    0.2412302451164687    0.3499233538443392
0.5038953294058499    0.6958345657698118    0.0238821941590677
0.0038959616209817    0.1958338261737017    0.0238827020727616
0.1146433744542544    0.6395356089926516    0.2516587982342818
0.6146436845254216    0.1395359476520278    0.2516590354533412
0.7370774446359930    0.6555035037401298    0.4267186580086699
0.2370751712260665    0.1555011436301431    0.4267179551645537
0.4414101218352596    0.6410142113252892    0.0907959014485600
0.9414117029964765    0.1410119857808099    0.0907953785122891
0.0401564687456390    0.8814009795326864    0.1832346338908088
0.5401564663742493    0.3814001022818339    0.1832344416001133
0.7108003763749999    0.8948024178514131    0.3476491228472754
0.2108002351662540    0.3948019729144451    0.3476487923075292
0.4039752417106575    0.9165308077661434    0.0185808795222877
0.9039758457031879    0.4165294873738020    0.0185814667842359
0.7920329995275216    0.8646690092836338    0.1865824308863626
0.2920333592334078    0.3646687419562384    0.1865823847695593
0.4566444203071062    0.8911327100793349    0.3471660736159135
0.9566449755698344    0.3911342970988285    0.3471653068905953
0.1435432372787622    0.8565662115408104    0.0138533783434613
0.6435435167388602    0.3565664536408232    0.0138532976545489
0.7555727117046294    0.0064336595564969    0.2477818035056830
0.2555728488005620    0.5064340744167416    0.2477815273619222
0.4166280349720026    0.0753614650491396    0.4103396419466049
0.9166289484900889    0.5753614587036247    0.4103396909954058
0.0963590352877533    0.0352566801644464    0.0841584701323284
0.5963581968046412    0.5352544182607104    0.0841582925273491
0.8555267278374000    0.1300417624458118    0.2487963553408823
0.3555261707417670    0.6300428688537896    0.2487959948745608
0.5738498202172437    0.0991171415253644    0.4102730470737055
0.0738494943581358    0.5991172276547313    0.4102734438190418
0.2222462567996804    0.1137401869805875    0.0846384801872754
0.7222454486633229    0.6137396389271045    0.0846387409026691
0.9252696678989231    0.9993902986573123    0.1908313645665457
0.4252698865807240    0.4993896472915621    0.1908313665860932
0.5835827953925871    0.9912290396965333    0.3499237104833539
0.0835831280147409    0.4912299530930739    0.3499237814362264
0.2538959199023507    0.9458342852481622    0.0238824470352849
0.7538957913091797    0.4458337017212790    0.0238828257388992
0.8646429132261624    0.8895350570499972    0.2516591247124381
0.3646431149404340    0.3895359982572902    0.2516588805995437
0.4870741812616213    0.9055031162636982    0.4267185534308568
0.9870725423143680    0.4055010128436113    0.4267181141755842
0.1914115930805480    0.8910120394386324    0.0907953212683205
0.6914116988572752    0.3910121888181149    0.0907954177467481
0.7901564114956278    0.1314008617053809    0.1832347440278362
0.2901565066207299    0.6314006689966739    0.1832343784494312
0.4608003425860610    0.1448013247469161    0.3476489027958453
0.9608006553523933    0.6448019955046934    0.3476490461148997
0.1539755995889807    0.1665298215888698    0.0185813176178716
0.6539750802355165    0.6665299781935269    0.0185814514075657
0.2027146741846073    0.1357511578150740    0.8090235829404756
0.7027147333997751    0.6357509008008921    0.8090238850133673
0.8699562185392045    0.1325597130861786    0.6442831136899977
0.3699564944184470    0.6325609123403587    0.6442822098840765
0.5029282626729743    0.0840432654139484    0.9625601090062061
0.0029290440524230    0.5840455012767040    0.9625605012188204
0.1799278138877085    0.9978844484605432    0.7473390139986621
0.6799276394041581    0.4978871461661852    0.7473390193013157
0.8551223605063910    0.9325381701207571    0.5825359761372357
0.3551228504260218    0.4325378377590105    0.5825354428397956
0.5027509903402300    0.9648797637829692    0.9069844518338186
0.0027510784353634    0.4648849272305414    0.9069840271134788
0.3010689220813619    0.8956001074906428    0.7529426952717539
0.8010686588876406    0.3956000072371906    0.7529429369252788
0.9705039478823081    0.8914394612658078    0.5910871044806594
0.4705041607841063    0.3914396919375572    0.5910870498237613
0.6270095745962411    0.8644494927043049    0.9176201762472846
0.1270091692849992    0.3644494092969510    0.9176201835719084
0.3360241685505888    0.0010671655097098    0.8171577919875254
0.8360238400486908    0.5010669408668570    0.8171581391425476
0.0057148725256650    0.0079656916597617    0.6527936817532369
0.5057142978559002    0.5079651042369052    0.6527944893807405
0.6609446442911069    0.0203009626573551    0.9765439929628770
0.1609447232568817    0.5203019747944503    0.9765436427004857
0.3031740280044244    0.1016364805058040    0.7501954598645554
0.8031754094421668    0.6016353237462463    0.7501960933160222
0.9587973948875889    0.1082009213117005    0.5854412706436183
0.4588018816782833    0.6081990892842639    0.5854419373890407
0.6188099000169591    0.1219582808655856    0.9160197629992116
0.1188101786969048    0.6219586325487110    0.9160194183727214
0.2021738676376421    0.8683041086276209    0.8102677798652855
0.7021733103015892    0.3683040005955263    0.8102674710901677
0.8762382105387188    0.8725593329541242    0.6531756217754339
0.3762384365072634    0.3725594421946355    0.6531752482316424
0.5108656176147289    0.9017155972838938    0.9768023447654202
0.0108642268194166    0.4017175405348346    0.9768012428869165
0.1199564290712839    0.3825605937793828    0.6442825193225517
0.6199561815435015    0.8825611755363277    0.6442816142419071
0.7529287853979481    0.3340453507239862    0.9625605474311595
0.2529290714489622    0.8340441840051457    0.9625604874633179
0.4527147607512070    0.3857512902889047    0.8090237683909518
0.9527145003167138    0.8857510926966565    0.8090237043996822
0.1051216894677435    0.1825389292655623    0.5825355834969258
0.6051216771257630    0.6825403125662191    0.5825357884720180
0.7527510434474908    0.2148846149797899    0.9069840370858097
0.2527513752770670    0.7148824429510733    0.9069843083148504
0.4299277728429317    0.2478847045176639    0.7473390267586814
0.9299276979241605    0.7478850963202481    0.7473388914218567
0.2205029004039604    0.1414382934283001    0.5910870896889656
0.7205030676387761    0.6414381512579688    0.5910870299352844
0.8770089386631379    0.1144503334000079    0.9176202195841475
0.3770094088555437    0.6144474471968112    0.9176204310941481
0.5510687641407798    0.1456002608491700    0.7529429148120568
0.0510685987419162    0.6456001026626376    0.7529426597200449
0.2557144073895372    0.2579652689775073    0.6527940641021168
0.7557137508807205    0.7579640618037163    0.6527950356064794
0.9109446089044692    0.2703007938057324    0.9765439608693964
0.4109450804907989    0.7703039357075022    0.9765431585309587
0.5860240757046261    0.2510666101514080    0.8171579830907038
0.0860241675667658    0.7510672694707331    0.8171576868186081
0.2088010771052425    0.3581993672639827    0.5854420128088159
0.7088064452735764    0.8581967420318301    0.5854430133581040
0.8688103723333297    0.3719594317678696    0.9160196988451681
0.3688093501336278    0.8719567292087067    0.9160192713345040
0.5531741969349661    0.3516362417856156    0.7501959019957078
0.0531739047876821    0.8516365892335895    0.7501955067467926
0.1262383662780756    0.1225588379413719    0.6531752835308269
0.6262380923053585    0.6225590578956318    0.6531749915249770
0.7608641168693961    0.1517174752580377    0.9768012784384824
0.2608645204277921    0.6517166661526753    0.9768017689487158
0.4521737284023650    0.1183040343810976    0.8102679033878807
0.9521735871745765    0.6183045627555785    0.8102676937194397
0.2027147308883508    0.6357512410597049    0.8090237407564933
0.7027147809000109    0.1357509344940186    0.8090239921036843
0.8699556606120554    0.6325589916613220    0.6442829805104975
0.3699560098815320    0.1325605749911080    0.6442821016754839
0.5029281773474489    0.5840432435116526    0.9625600625878263
0.0029289427059143    0.0840456587920698    0.9625604923800128
0.1799279043640649    0.4978849412482242    0.7473389978016394
0.6799276245604344    0.9978874135474736    0.7473389479242664
0.8551199441127286    0.4325380488369928    0.5825371711296232
0.3551199247288691    0.9325382603148317    0.5825372840209949
0.5027510288796783    0.4648799184771534    0.9069842733778725
0.0027509938819156    0.9648850236321903    0.9069840296143389
0.3010699070648303    0.3956012448062550    0.7529427418435480
0.8010689422703939    0.8956004584642433    0.7529429242385796
0.9705019481422762    0.3914368724640050    0.5910869158740943
0.4705021897081162    0.8914372358735304    0.5910870258290595
0.6270096113851439    0.3644495633804554    0.9176200891817272
0.1270091570422867    0.8644494842728430    0.9176201810192194
0.3360241047835886    0.5010674461737108    0.8171579145309568
0.8360238859828263    0.0010670659617553    0.8171581058424026
0.0057148406641789    0.5079656717610561    0.6527931687852646
0.5057141945990061    0.0079650913250444    0.6527942303614248
0.6609445782612510    0.5203010978665631    0.9765439630894863
0.1609447049937588    0.0203016601086248    0.9765435758217367
0.3031737677313554    0.6016371583625352    0.7501955493282567
0.8031750250861518    0.1016360010318750    0.7501960796546652
0.9587965164361953    0.6082005005011966    0.5854406481341435
0.4588017035956081    0.1081987039026703    0.5854418289388649
0.6188099025090400    0.6219581902854069    0.9160196818349881
0.1188101526304791    0.1219585297505528    0.9160193304580737
0.2021738689291039    0.3683042856444614    0.8102676171468036
0.7021733251761830    0.8683041052722256    0.8102674093166919
0.8762385123751856    0.3725593350464098    0.6531758878773695
0.3762387213424335    0.8725594013295623    0.6531756672282060
0.5108654416068593    0.4017156610149170    0.9768022567375683
0.0108642163198241    0.9017174762475541    0.9768012033176660
0.9527146645844052    0.3857511607576422    0.8090236515358770
0.4527148925378084    0.8857514028216181    0.8090237614903750
0.6199553213658026    0.3825600229660769    0.6442823359866792
0.1199558214771469    0.8825598194914043    0.6442828886352889
0.2529289647851448    0.3340443060817039    0.9625603914282405
0.7529287054282727    0.8340452183829331    0.9625605913766179
0.9299278560719889    0.2478850715167337    0.7473389415099719
0.4299277952722670    0.7478850793450255    0.7473390276121836
0.6051220139765918    0.1825363169196476    0.5825358132888122
0.1051205219162661    0.6825368817611870    0.5825366873161972
0.2527513124224611    0.2148827434688754    0.9069841194558591
0.7527509836499781    0.7148844782493783    0.9069840207062235
0.0510693327116189    0.1456005965954676    0.7529427298284852
0.5510694435429502    0.6456008011960025    0.7529428415615023
0.7205024662593470    0.1414382175397692    0.5910871478414290
0.2205018306423717    0.6414372220997310    0.5910871596364196
0.3770093737408367    0.1144477482636093    0.9176204363672124
0.8770089037136735    0.6144503509132206    0.9176201883426962
0.0860240208247141    0.2510674608128675    0.8171578624831670
0.5860240102482779    0.7510667467363489    0.8171579723510647
0.7557144318790866    0.2579650132431710    0.6527942415610152
0.2557149334431442    0.7579656965822961    0.6527934097363348
0.4109450625189790    0.2703036980512493    0.9765429481131238
0.9109446542748154    0.7703003210589575    0.9765439185916892
0.0531745266552394    0.3516363069321000    0.7501954152590828
0.5531743211523544    0.8516364475788882    0.7501957000511731
0.7088007792872096    0.3581993368625951    0.5854421980527496
0.2087971348635467    0.8582006728687288    0.5854411249819075
0.3688093196983533    0.3719565444163081    0.9160190902500840
0.8688102706573902    0.8719593252425932    0.9160196822288394
0.9521737555469201    0.1183046304561308    0.8102676846970172
0.4521737971011071    0.6183039943971839    0.8102678128666914
0.6262381139017521    0.1225599778597413    0.6531758037226514
0.1262385771225929    0.6225593603719349    0.6531759371268812
0.2608643245778344    0.1517167403840009    0.9768016439182594
0.7608641102809074    0.6517175524690016    0.9768012770695638
0.9839711384618746    0.0174624474872167    0.0229475700547254
0.4839709826292699    0.5174622765161994    0.0229473706301962
0.6666753344894981    0.0027097959728505    0.1696770991164062
0.1666756409146090    0.5027095129788608    0.1696769565033457
0.3314142397113887    0.0087212049542960    0.3321530548236058
0.8314145649176795    0.5087218026381213    0.3321530865177015
0.9166755269911538    0.7527096980211680    0.1696770800303299
0.4166757659545136    0.2527099457897697    0.1696769451564149
0.5814149503042101    0.7587204805826743    0.3321529205452568
0.0814147491334721    0.2587208105427428    0.3321528404506528
0.2339711018557422    0.7674626109004570    0.0229477662853693
0.7339709488909002    0.2674622742672111    0.0229476084060790
0.1666756527741379    0.0027097180725386    0.1696769075016688
0.6666752698128996    0.5027096233977156    0.1696769802558954
0.8314141535465945    0.0087222776247849    0.3321534319415612
0.3314142465199990    0.5087212550424076    0.3321530419850055
0.4839712348530988    0.0174622984576527    0.0229474868500556
0.9839712106987382    0.5174624465774934    0.0229476579177417
0.9166754495595000    0.2527095756273403    0.1696770246124741
0.4166757461900533    0.7527099593026195    0.1696771015024378
0.5814141847921577    0.2587206309129794    0.3321532245916474
0.0814140412376416    0.7587209444917105    0.3321531455533919
0.2339709482533293    0.2674625448891845    0.0229476007023654
0.7339708526541083    0.7674622190518674    0.0229476405439469
0.1601789237464207    0.2152909173415200    0.5079058005225424
0.6601775238813576    0.7152885128174364    0.5079058610854369
0.8349877340520488    0.2497043148160224    0.8312711030812777
0.3349876480399792    0.7497039280849614    0.8312711702939890
0.5032750074073733    0.2488325526442733    0.6672139429333382
0.0032745404065253    0.7488318678201118    0.6672135538790235
0.0849876439587374    0.4997041628313852    0.8312710492323924
0.5849875351874904    0.9997038894643726    0.8312713232573880
0.7532750920384425    0.4988322956197797    0.6672140037353679
0.2532750606777559    0.9988321292593705    0.6672137758180495
0.4101796330568414    0.4652915329349029    0.5079058391367977
0.9101809338324168    0.9652914808184662    0.5079059422590663
0.3349875008602273    0.2497038107561789    0.8312710765969410
0.8349876255879822    0.7497042577218442    0.8312711387835637
0.0032751553758348    0.2488322838663415    0.6672136529140025
0.5032757320328519    0.7488327616157582    0.6672139401394397
0.6601796907856580    0.2152898775298679    0.5079059034589124
0.1601802919346769    0.7152914217422832    0.5079060569870041
0.0849876344101650    0.9997041601859079    0.8312709555980792
0.5849875161242598    0.4997038743990036    0.8312712965863964
0.7532755152232258    0.9988330053796866    0.6672139959145467
0.2532755023838151    0.4988325843260276    0.6672137471258652
0.4101787254888309    0.9652899169064640    0.5079060624148954
0.9101797966907194    0.4652904673458134    0.5079060080423933
0.1638450248593004    0.0070745412682378    0.2252531995093276
0.6638447406848034    0.5070742857023941    0.2252532803200621
0.8292761785216212    0.0135243312023024    0.3868404108106345
0.3292763137734298    0.5135228991216743    0.3868399873768265
0.5026679563677964    0.0206349815379104    0.0781797276176271
0.0026691955115968    0.5206316950804066    0.0781797742936739
0.8737495225529747    0.1194832425456467    0.3121952408280942
0.3737494269082846    0.6194825762355384    0.3121948852373009
0.5442351558240318    0.0537237631534819    0.4946489714437803
0.0442363240432729    0.5537229546673303    0.4946482528682657
0.2048213691120491    0.1171265784218257    0.1495229876526761
0.7048211710520518    0.6171265943811781    0.1495231549142649
0.8673876621890807    0.3877100417894755    0.3156597937956858
0.3673872401374882    0.8877092986498331    0.3156599316492891
0.5554547252373329    0.4301934655087342    0.4754810099498981
0.0554552723571513    0.9301936502410487    0.4754807779377230
0.2059564312405695    0.3860078581711351    0.1536949017787030
0.7059562550899970    0.8860082133279470    0.1536948723843353
0.2545223251429350    0.0158240973882017    0.3120647525924291
0.7545227215664486    0.5158245633419107    0.3120649192320624
0.9025413237167941    0.9457900202018668    0.4540739724698249
0.4025410307318037    0.4457898151354167    0.4540737720221836
0.5915461465693357    0.9995447816964399    0.1478868454159934
0.0915465295413871    0.4995445405772145    0.1478866474100785
0.0829647471041726    0.2516528561267355    0.2120645219897003
0.5829647591730459    0.7516526392173619    0.2120647316984505
0.7485428230859088    0.2668303160745453    0.3800755825621527
0.2485420835674017    0.7668297705188820    0.3800755436240056
0.4191105213031054    0.2593315478578686    0.0439564392325353
0.9191109134064595    0.7593292090227295    0.0439568078945344
0.9138448595624319    0.2570742464142465    0.2252533073164394
0.4138448911022623    0.7570755359449908    0.2252533278091574
0.5792762604771650    0.2635221068269228    0.3868401891612570
0.0792759826928158    0.7635222583582870    0.3868400833904740
0.2526690975645581    0.2706332720302441    0.0781796849862293
0.7526688036288837    0.7706321038082716    0.0781798067680012
0.1237493259983040    0.8694821807167256    0.3121950270212653
0.6237495055659140    0.3694816563395728    0.3121949282026611
0.7942329393228922    0.8037263854412642    0.4946489851477388
0.2942348874912230    0.3037230500788212    0.4946478937291809
0.4548214773115447    0.8671263971595706    0.1495228273969353
0.9548212045299584    0.3671263414151357    0.1495231621680882
0.1173875451713583    0.1377091928681716    0.3156592061514930
0.6173879231368111    0.6377088174887025    0.3156595259178808
0.8054553420382731    0.1801963546885109    0.4754823101572814
0.3054551094251052    0.6801953166396809    0.4754800348062467
0.4559563641584151    0.1360080850863890    0.1536950948518108
0.9559562726014487    0.6360079263476196    0.1536949189922188
0.0045227978354740    0.2658239497482464    0.3120646786854930
0.5045228870878912    0.7658235715884514    0.3120648247939322
0.6525424672506832    0.1957883161879973    0.4540738010231103
0.1525397891453142    0.6957914888287788    0.4540739228831435
0.3415465553805778    0.2495447489905117    0.1478865569259861
0.8415463228165186    0.7495447689889292    0.1478868526754110
0.9985427043383969    0.0168295049583412    0.3800754395825540
0.4985425702388343    0.5168295469603426    0.3800753341059120
0.6691107237294711    0.0093298806752097    0.0439569511969366
0.1691108627169444    0.5093301722170054    0.0439566669503960
0.3329648176914130    0.0016530191517521    0.2120647245800857
0.8329646789188809    0.5016527045661386    0.2120647818331215
0.0026689507078010    0.0206321858105746    0.0781797259023619
0.5026677470812837    0.5206353469765848    0.0781796338375827
0.6638447052549793    0.0070744078209600    0.2252533716199787
0.1638449363353394    0.5070745671435098    0.2252532346839424
0.3292758047990786    0.0135230250270861    0.3868400691972657
0.8292764753081883    0.5135239372081848    0.3868399915334119
0.8737497729003771    0.6194833583865049    0.3121950136083156
0.3737494128869702    0.1194825126473200    0.3121949493823307
0.5442356066007643    0.5537212150036303    0.4946468960157654
0.0442367194851055    0.0537211659610295    0.4946467573417119
0.2048213992622492    0.6171262168908426    0.1495229162366168
0.7048211525783514    0.1171266299496689    0.1495232472170754
0.8673866919948454    0.8877100805214745    0.3156600913870563
0.3673869737560450    0.3877093460585556    0.3156596635240989
0.5554552685773367    0.9301998863729872    0.4754795138212759
0.0554554899990148    0.4301988025551882    0.4754787650243174
0.2059565264675983    0.8860080945811232    0.1536947658874386
0.7059561705476057    0.3860080962409294    0.1536948057444984
0.0915464542466580    0.9995446357492810    0.1478866970049358
0.5915461723850485    0.4995446703225585    0.1478867625308293
0.7545223110272854    0.0158252370834211    0.3120651518170667
0.2545223509442516    0.5158244209956929    0.3120647785572319
0.4025379319403089    0.9457918713670175    0.4540737247175298
0.9025378289931590    0.4457922241640560    0.4540738007703108
0.0829647872344720    0.7516527658220565    0.2120645998848197
0.5829646970993558    0.2516526305625345    0.2120648275472103
0.7485430004917096    0.7668308319732803    0.3800758146100652
0.2485425449256654    0.2668300981134932    0.3800754583020807
0.4191106085502512    0.7593317172392827    0.0439566072862427
0.9191108393981027    0.2593294138376209    0.0439567554161194
0.9138448775902638    0.7570743773862414    0.2252533931814031
0.4138448674195541    0.2570755094454671    0.2252532086851255
0.5792769230224607    0.7635216378516052    0.3868398557534462
0.0792769830476266    0.2635217748229148    0.3868397216636664
0.2526693991101062    0.7706327656125141    0.0781798119654442
0.7526688205516003    0.2706321212318259    0.0781797701430995
0.9548212969927311    0.8671263867330344    0.1495232272006543
0.4548215259749659    0.3671264305490490    0.1495227267136437
0.6237499127010908    0.8694821444165675    0.3121948796216459
0.1237496635525558    0.3694827359833686    0.3121948288923775
0.2942362972864264    0.8037218430279413    0.4946472123232570
0.7942343767531288    0.3037244024705162    0.4946472489296436
0.9559561768645848    0.1360078673117934    0.1536948140805219
0.4559564228605965    0.6360080078487693    0.1536952321952539
0.6173867534865183    0.1377085754953138    0.3156598951669136
0.1173866949131063    0.6377089906962842    0.3156596693663766
0.3054549528954867    0.1801962492251726    0.4754814600903705
0.8054555121586836    0.6802003846315579    0.4754822611873900
0.0045222137411483    0.7658242586900876    0.3120647713932296
0.5045222496386627    0.2658239513049596    0.3120649863118156
0.6525410695465457    0.6957881486495496    0.4540734542312272
0.1525409751425928    0.1957898935186169    0.4540737186294241
0.3415466375477608    0.7495447024795328    0.1478866866314689
0.8415462334629956    0.2495447720696486    0.1478867691407990
0.8329646919557770    0.0016527310440389    0.2120649341443617
0.3329647855465497    0.5016530210647133    0.2120646092003947
0.4985423088654591    0.0168300162211063    0.3800758937170303
0.9985424356874792    0.5168298980264869    0.3800758609678314
0.1691108064144456    0.0093299965478997    0.0439566540748133
0.6691105482872571    0.5093297980656141    0.0439568700581604
0.3391728546953139    0.2491609612961533    0.7755945589062381
0.8391730700482893    0.7491613856257094    0.7755946320723817
0.0074868316746750    0.2448458275269755    0.6118862420959379
0.5074878186723663    0.7448469571117087    0.6118864837871858
0.6750223301212712    0.2335709630237321    0.9468128338579747
0.1750223704616876    0.7335704933141016    0.9468129291202594
0.0420600107511231    0.1366272307069507    0.6888504090892317
0.5420604056932875    0.6366274006740908    0.6888505524893724
0.6822347665189400    0.1012443185230220    0.5341059975037415
0.1822368704930633    0.6012450599782667    0.5341048602070692
0.3719635785109110    0.1340643743796173    0.8514979423417167
0.8719635373776743    0.6340647207856319    0.8514979160357675
0.0400627194200723    0.8671309653478826    0.6853172124763302
0.5400634001167099    0.3671313773624447    0.6853177187530056
0.7152344097165458    0.8295465583445868    0.5157811015368383