Cl32Li191P32S160
1.0
   20.5609999999999999    0.0000000000000000    0.0000000000000013
    0.0000000000000033   20.5609999999999999    0.0000000000000013
    0.0000000000000000    0.0000000000000000   20.5609999999999999
Li  P  S  Cl
191  32  160  32
Direct configuration=      1
0.0191551660113971    0.0980033247234307    0.0871308463601567
0.1244724122600886    0.4995394548656280    0.3702374273505040
0.4906368875427931    0.3994820318814478    0.1048642094384447
0.3676751452237203    0.0114894787989137    0.3771080635478224
0.0060459954818349    0.4073744536410012    0.3884553683970245
0.1542168275168298    0.0083738131661866    0.1470456271207410
0.4809230174882497    0.1052939061505333    0.3919604313207792
0.3786529934827913    0.4898802571278355    0.1248968744528505
0.3507878348472735    0.1475653177973560    0.4870179754808484
0.3562333870481663    0.3563894961983006    0.0195724338208797
0.1634530786642416    0.1525531580358307    0.0094754294397286
0.1234840567587482    0.3798951822383366    0.4848280998920935
0.2640349320637758    0.3988444901159311    0.1514094032746596
0.4014926880448093    0.2330592034648567    0.3384770907944104
0.2432063424535846    0.1092822459339286    0.1454668283122858
0.1046426062219139    0.2732106464833614    0.3550892666507584
0.2558784050365350    0.1482509202662714    0.3932692359019703
0.4072994305074663    0.2634868064775610    0.1526597730526047
0.2349484645318398    0.3797660167407321    0.3728491216792109
0.1245574628092903    0.2377812789676471    0.1235473915999717
0.1165287777272619    0.1295139791040918    0.2336019676434556
0.1375290092983410    0.4055958057141553    0.2555666890288639
0.3425213426773904    0.0997237778841932    0.2601617417273590
0.3996097927898155    0.3612314705467780    0.2441114175529053
0.0110405102609093    0.1025625582994558    0.5864867175327818
0.0973009985402922    0.4781475303428658    0.9022623917566789
0.4892560909209667    0.3895236490788022    0.6072366684645341
0.4090356326080006    0.0096697582985694    0.8989091685008137
0.0233898712998568    0.3443271020709733    0.8411854266804082
0.1289007040468661    0.0115583893448117    0.6188120347984941
0.4919579594195343    0.1453670494501506    0.8543312828802830
0.3746780498255452    0.4909383401230827    0.6237025573755034
0.3948686570583989    0.1084104578067294    0.9883778658091577
0.3921751585636767    0.3877527038122438    0.5094620971716664
0.1438487152680549    0.1490494363942771    0.5061185145407375
0.1553167874333087    0.3483068140262641    0.9829151125473362
0.2596602089150871    0.3880634725680230    0.6423026972428740
0.3503001335463203    0.2289097731616723    0.8960874681899960
0.2366743313847842    0.1481931725571814    0.6011727166744889
0.1557923647743893    0.2572590663061026    0.8866573889381535
0.2702144042049043    0.0919392590157949    0.8520844376541503
0.3765055766104071    0.2644924066098672    0.6263697056298303
0.2445707460777798    0.3934829821889984    0.8529373491746910
0.0879541395626258    0.2333584843836065    0.6520728814887349
0.1431065146665336    0.1046637028556658    0.7314250280963757
0.1514426398432240    0.3914221838331415    0.7575908305333368
0.3978422091377268    0.1416768194252144    0.7608430618055915
0.3575872876232737    0.3895159428401730    0.7391764199625696
0.0183543274702793    0.6549032786333840    0.1462875509693216
0.1218865712536591    0.9834159997715703    0.3722761959989052
0.4877404290043629    0.8560326789635295    0.1530856537285889
0.3673251483089885    0.5218490001811281    0.3721656924854971
0.0065424768448714    0.8683412797678378    0.3726289254398601
0.1391471398994925    0.5118867659541645    0.1299272721298518
0.4876272081763879    0.6285439695322340    0.3715552761641303
0.3903707464744139    0.9899073628167439    0.1053070939568711
0.3756140057800068    0.6361317015083578    0.4873557000405603
0.4052111515656865    0.8960833218037951    0.0121632689778524
0.0957592568154411    0.5995701734193285    0.0110592052955444
0.1386127773958306    0.8491217422667919    0.4855369910196444
0.2714922202499730    0.8417623506329749    0.0856012267062607
0.3916251612462672    0.7486282630652689    0.3515037458976403
0.2395083052456430    0.6474386219845265    0.0894087781209321
0.1288833751660032    0.7553485899317489    0.3791225213847257
0.2588806018015515    0.6626120123640769    0.3915904116254507
0.3948751330356735    0.7635161419230325    0.1483162845136402
0.2351299881148483    0.8544268586401047    0.3832685066696125
0.1459444299587363    0.7379226812076430    0.0895867772597922
0.1514686131992809    0.6002635632966036    0.2300034529270819
0.1219305154274899    0.8669517837539985    0.2577028360538234
0.3657883275657541    0.6249499664174319    0.2603339447384424
0.3361710562078990    0.9125911726036384    0.2241618612408545
0.0106102445872564    0.6236457110287128    0.6154686378222423
0.1332962108661563    0.9977213769062122    0.8601343054245616
0.4870953805739507    0.8680673679093336    0.6259344540312615
0.3797697770921148    0.5173179551395203    0.8774370161046831
0.0113468148088784    0.8906643067260258    0.8797065707513915
0.1224943228197852    0.5207766742668465    0.6170461350154337
0.4875046839831220    0.6611033869110646    0.8567681076425715
0.3748130529869876    0.9868876987112755    0.6247034786845472
0.3815524875469748    0.6226981154077357    0.9884855532674892
0.3730952231875779    0.8668292632768811    0.5136615321173656
0.1409960076710100    0.6618774353788320    0.5088052766890729
0.1288604547911900    0.8820186208842643    0.9849235280395897
0.2638773971984056    0.8675449963050597    0.6231030348534699
0.3507286864936386    0.7446555040889775    0.9005673280348121
0.2378345983818719    0.6362382810349613    0.6244185975949539
0.1254295712994583    0.7703292330793353    0.8731594960959436
0.2585443190037193    0.6283317224438200    0.8809335907148994
0.2382527294080322    0.9073391559205606    0.8541035249443756
0.1034185289609886    0.7464408736736267    0.6422223291501594
0.1229733885590568    0.6267908349592910    0.7376171474155053
0.1380094146544528    0.9031219713489829    0.7590649427439778
0.3703998033064300    0.6312357779030763    0.7614979773620026
0.3766138478401740    0.8676222291921359    0.7369047783502205
0.5154120740923483    0.0935227695496012    0.0965149042949267
0.6520648515545018    0.4783566171442157    0.3472406352800871
0.9910679348669285    0.3554263520691286    0.1440896270476236
0.8908555565935866    0.0112695081158404    0.4008133828169573
0.5075034443965073    0.3915507476908153    0.4015129510721975
0.6507040246138348    0.0091651281645198    0.1435112898774709
0.9857895187650159    0.1113682685913940    0.3911244348252588
0.8770428982143315    0.4916144666841186    0.1263363385249704
0.8894376790149866    0.1161646385908415    0.4908792980642621
0.8873425710575461    0.3734485357209929    0.0130946617281704
0.6517291485231343    0.1427428226201582    0.0108844402245833
0.6031282280342595    0.3926042146467304    0.4945714551695600
0.7636195754554747    0.3730956490869022    0.1366360235583772
0.8867336448651201    0.2368413899056128    0.3596178646346085
0.7388265095615495    0.1140561736237258    0.1367570724855759
0.6350938591989590    0.2574159818238294    0.4061577761604096
0.7602473239691383    0.1567695748489026    0.4110933238976398
0.8952635356944241    0.2583659339409350    0.1453547435032724
0.7329234288926814    0.3471213973936184    0.4058231263330994
0.6122479111855008    0.2320166363595983    0.1341959295348803
0.6413976611268773    0.1092991723059593    0.2381244143550816
0.5914670387611271    0.3445060500619355    0.2731649106591908
0.8356495921396467    0.0988661334614452    0.2680387653756743
0.8934662610395787    0.3567746272477740    0.2406266742040808
0.5111826253799562    0.1419484320544367    0.6479044723327257
0.6227751903392824    0.4909435694515518    0.8758228686265965
0.9934152075721764    0.3618394321790787    0.6497993282940143
0.8929452669332661    0.0086228448752726    0.9007406868749050
0.5113185671776385    0.3670655574961983    0.8754644977064167
0.6486417003191904    0.0096764457871146    0.6588033999244520
0.9879028505318584    0.1086993955143395    0.8922483241135148
0.8744518331388397    0.4898193857461356    0.6291622805494811
0.8874079228406189    0.1132149179562373    0.9891003527163695
0.9005936465962306    0.3981866655266170    0.5139650155088268
0.6027910618341318    0.0920544392680600    0.5202384503694578
0.6116795345241806    0.3976512076115320    0.9935197320984763
0.7691899322207992    0.3551255453180349    0.6053294832447166
0.8849996766841458    0.2317297041383714    0.8613072879902874
0.7389694276915416    0.1083273418248964    0.6442405630210095
0.6535632475845697    0.2636164291928564    0.9037775780135594
0.7612225536646928    0.1432761005850620    0.9014168800926666
0.9026176525671143    0.2641481246932325    0.6582954349959278
0.7428714583459192    0.3982646986320530    0.8617351561659103
0.6474837159729453    0.2289495305431876    0.5982251180321330
0.6044443043407960    0.1453523215502010    0.7421081066669990
0.6247515390234840    0.3670331829647037    0.7617423705661871
0.8478730235197227    0.0940183967267098    0.7646350396100423
0.8542566535084173    0.3990954896674941    0.7409010760337782
0.5100316880524700    0.6432669604654999    0.1528071668095644
0.6120558089106407    0.9980726825056795    0.3834049818078602
0.9884085238898808    0.8495947353781146    0.1394588142325709
0.8796484429626217    0.5117376799925550    0.3898762575827350
0.5089023839259745    0.9037131405480027    0.3859894485276250
0.6139043484176432    0.5094375259224029    0.1213827592731180
0.9798313012288085    0.5991029759993987    0.4014051072567018
0.8775898392098662    0.9785247443780005    0.1201666895829545
0.8390732909439177    0.6469259862134187    0.4893095406874490
0.8579713258506316    0.8390717637979506    0.0124578727572233
0.5955477430933951    0.5930947038837913    0.0182352070296134
0.6033020740955871    0.9082934460945041    0.4882757615207715
0.7631507185523944    0.8404394510561367    0.1080511042443228
0.8401614170324234    0.7379626249017520    0.3958632370280469
0.7312941673886050    0.6559666527712146    0.0969571964369161
0.6231789723298240    0.7706123502746463    0.3752653774266797
0.7609616491273195    0.5995610027018565    0.3458836250960166
0.8856015893224676    0.7522062235455800    0.1352839712528548
0.7351159666179253    0.8804069503149681    0.3804381199970016
0.6016856987662456    0.7370271948937749    0.1530886082507040
0.6548989123962882    0.6010023215661088    0.2364023472317666
0.6319398787596763    0.8920959207808408    0.2615018956004898
0.8960476946351572    0.6542375123929830    0.2681363962755368
0.8880079506581811    0.8525064301387458    0.2373288484849990
0.5111274440463710    0.6322174176471417    0.6210259491290752
0.6251660636457558    0.9788318922536630    0.8756130754568426
0.9795832837441832    0.8924000241450024    0.6058412539072030
0.8713564607151062    0.5090866096365834    0.8635095758846388
0.5131539089475547    0.8480710338637512    0.8606707047859391
0.6269940171880357    0.5173655749804777    0.6297841993942420
0.9864072061929675    0.6003576407397133    0.9049706516611480
0.8559784998650851    0.9880796121965759    0.6413462010727262
0.8467544575813089    0.6557123815019139    0.9814398029384432
0.8361640015936705    0.8413638319196273    0.5220484184068436
0.6298885009638436    0.6278099941886812    0.5086354304180701
0.6255249656082871    0.8683923582961734    0.9901502806078402
0.7607123131063599    0.8962858234484070    0.6563735843719762
0.9022972862996063    0.7363840374685069    0.8522953794089213
0.7378176012383455    0.6221766972231556    0.6315496870661099
0.6213882881640397    0.7508925495127418    0.8719993269603363
0.7680537016459157    0.5923428274152374    0.8455872037069583
0.8955690788175295    0.7607894283177685    0.6461664782743947
0.7396009552212346    0.8698334952236767    0.8748012308239282
0.6509185998505382    0.7447054146662703    0.5999018936492981
0.6063182210104863    0.6610638425440474    0.7377164808717515
0.6085538370832430    0.8462626600619252    0.7635542937908516
0.9029373320951606    0.6426794635127969    0.7606247558915424
0.9004399530827086    0.8540800745086520    0.7400443723469866
0.9977351566255717    0.9980061888966675    0.2472309210433644
0.2537839957631080    0.0003304955387951    0.9985986885543501
0.0056037827679620    0.2483795111918145    0.9952533851791264
0.2475642031334646    0.2541206779595419    0.2503823997865282
0.9962307939299085    0.0049406651868548    0.7443523193206862
0.2479710747570106    0.9939445704323921    0.4980319178840423
0.0005794177814451    0.2561923406329589    0.4978618016322388
0.2529176015980680    0.2427536755112708    0.7466315364431850
0.9957320443878438    0.5085042583480978    0.2456740624939129
0.2539914654018244    0.4971509292555850    0.9970463260788925
0.0034389295929025    0.7506805216516245    0.9940689353645336
0.2482280345752053    0.7512355528478215    0.2414139204695808
0.0074643978683439    0.5009865940021442    0.7489462408361357
0.2488315952110872    0.5081444867912712    0.4982972431241715
0.9914356701788323    0.7497480595430761    0.4985148778405835
0.2475713260198506    0.7531019737991064    0.7514581342152179
0.4946615294128530    0.0048556831909916    0.2461320029694187
0.7507643091312856    0.9913336758514906    0.0008617275401553
0.4990150915883418    0.2478882648285688    0.0015974013692669
0.7451074184058940    0.2491079466683898    0.2553232829426457
0.5019649494845528    0.9914773555083273    0.7521966428561198
0.7491574417697231    0.0004501632901587    0.5040428840706971
0.4962244016750232    0.2424023739481279    0.5030134730415224
0.7514084182614317    0.2479987061855904    0.7492408645512098
0.4986032036067521    0.5011701539186227    0.2572976831058798
0.7537734592477339    0.5019225686640318    0.0039420973809730
0.5000801549010776    0.7465553623581545    0.0050169291202262
0.7445213049786152    0.7509945555328981    0.2532356510101041
0.5009100124009763    0.5045173067409789    0.7511128239596035
0.7465321154877054    0.4970575642198491    0.5041173313888841
0.5016512459828242    0.7535293478306065    0.4971302134359957
0.7539647340736207    0.7458089697782992    0.7509370265536178
0.0557942660660977    0.0564914733949428    0.3057400016497915
0.0510109988779139    0.4505027875465203    0.1856802281834313
0.4382062477747157    0.4475443623042589    0.3172995652880440
0.4380206981306354    0.0620054570373025    0.1873906728718090
0.3077513020962812    0.0619134011540303    0.0555339433402531
0.1900463003450339    0.0505904252372260    0.4399787060108281
0.3062910332280971    0.4494026809293913    0.4410236071055521
0.1989508410870791    0.4372013642403484    0.0545337545045017
0.0609785915977641    0.3097054980240920    0.0524958656185275
0.4438811587556931    0.1899117513292131    0.0616383268022977
0.4381447574155775    0.2975242972728519    0.4429115565709701
0.0572776087535812    0.1988950617959121    0.4371702335280455
0.3049991220670230    0.3100251007313876    0.3106350954096099
0.3081639678726741    0.1973627259075615    0.1949265135866951
0.1856826418519576    0.1969743786572947    0.3062200101276978
0.1901495390545908    0.3122879234383121    0.1921625236089478
0.1302542299755307    0.1224176949476873    0.1210332763907786
0.1216213730104367    0.3860013625648031    0.3713686893582835
0.3775836624999883    0.3775916124441089    0.1298358491836769
0.3685963491193370    0.1242400455226066    0.3731242439171137
0.0535544630790799    0.0640024412594001    0.8008059919801344
0.0673121946391412    0.4473880356109477    0.6884314551857964
0.4434702829669419    0.4457237016361177    0.8086875075430194
0.4443932089203082    0.0488727597717722    0.6943500334203646
0.3051330465667629    0.0515797448733953    0.5556301678803800
0.1948843848401735    0.0575769577294763    0.9412526762166644
0.3156995541771028    0.4407339288525889    0.9407855860958837
0.1918478646157121    0.4492747656210809    0.5559228969883587
0.0602187282321218    0.3122875482567949    0.5559526763257582
0.4374034103920543    0.1859381717133542    0.5620531087162853
0.4367061126811559    0.3042273808739551    0.9450619524288638
0.0643930762478389    0.1896918278190251    0.9399960526709485
0.3115254615752102    0.2991612819766655    0.8055917507803223
0.3117945130721479    0.1862499230037515    0.6877058738068537
0.1982587930168801    0.1815557418630951    0.8039981520615547
0.1928530232358990    0.2977459104518136    0.6884536103617482
0.1229181595639546    0.1242433738764187    0.6187608909408104
0.1325983874722366    0.3711318231755025    0.8696689422816123
0.3743531256096507    0.3783902027078974    0.6242677141833713
0.3805285983649317    0.1198601552991559    0.8740255512060764
0.0541561330454333    0.5665172661683863    0.3040273668436702
0.0576492129921023    0.9399341307727049    0.1904685338186228
0.4343167335227721    0.9456588202383942    0.3012945903912770
0.4397923771485312    0.5583669638029128    0.1979499622869134
0.3109863877361259    0.5570308206201765    0.0551425992037372
0.1924312526656633    0.5686047347081307    0.4421315113620330
0.3054506605762554    0.9335620384274820    0.4407386007785112
0.1992496346866777    0.9397766106103663    0.0575041665861686
0.0598348640322332    0.8107844855238462    0.0518405325001882
0.4403125861684010    0.6902104048791733    0.0617251902606021
0.4455460878337641    0.8120344043517703    0.4372405600162685
0.0481840191907887    0.6912517065744865    0.4401067854882826
0.3057162014467084    0.8116662386843840    0.2984464134934093
0.3068226064466230    0.6920893945317125    0.1858331719246470
0.1905114977703660    0.6922816032228173    0.2987350469608000
0.1928064150750325    0.8089491443086837    0.1822441986037365
0.1286806184522452    0.6269323825249822    0.1191158125165439
0.1209109383413223    0.8694541907095039    0.3719120244888091
0.3773875443527455    0.8752978536842702    0.1222571371323121
0.3728959076542349    0.6363635026259790    0.3738057822056453
0.0618535584201224    0.5591862923039351    0.8083511334743306
0.0533610137177161    0.9451228419438936    0.6856902731617430
0.4444425698134659    0.9328008698544844    0.8105593742264795
0.4419848624650904    0.5623997229939520    0.6921739019688049
0.3078536592063878    0.5656157082455932    0.5571130625112926
0.1942935027022513    0.5522736990259368    0.9397303806877688
0.3123527772222913    0.9426158462917085    0.9407777051209264
0.1905984543999371    0.9333519867778781    0.5552302876338279
0.0509633434033124    0.8083854823750583    0.5559681642217261
0.4421661383039101    0.7009365592956119    0.5566992477529410
0.4433495311888291    0.8040885328008266    0.9443577487400573
0.0623056371209902    0.6945807693788302    0.9360705555283982
0.3026476546245327    0.8115212331460782    0.8117158229260468
0.3070187369347852    0.7003715629236056    0.6920600209994500
0.1895013980335252    0.6939326992152883    0.8086471362401735
0.1877967295698740    0.8117004895581598    0.6952593117331355
0.1242123459387354    0.6349120072803723    0.6228766651901532
0.1241842914084310    0.8830691432207615    0.8722343993155552
0.3751943992249165    0.8757727745434342    0.6250766320785207
0.3731927007332003    0.6324008996483758    0.8751543472002692
0.5509297611194282    0.0635594102387800    0.3042433764113459
0.5545463223954018    0.4399643923270732    0.2021221663582827
0.9358373028072516    0.4508410152038054    0.3012844811399283
0.9410224743040116    0.0549113681586280    0.1886798314746194
0.8071673230539926    0.0520539170297458    0.0572957754622021
0.6929792173846775    0.0586918418331720    0.4453417263405849
0.8038048457615612    0.4369914166942326    0.4490284997014627
0.6988482998615202    0.4432073558531708    0.0641126430699056
0.5563867076174548    0.3075579549624367    0.0584931327596929
0.9471878196840501    0.1929700268586934    0.0554462959633669
0.9427887044668265    0.3132971034873928    0.4391785459999200
0.5533701120542878    0.1810843408468151    0.4483298876132801
0.8027834567127035    0.3093176212530593    0.3111543467585070
0.8047926276237550    0.1934196239438552    0.1966203722892114
0.6889301937814098    0.1910456124546167    0.3139910911177282
0.6840014519584600    0.3054139724864168    0.1980866112776228
0.6241089974982934    0.1206614453119771    0.1215585881712820
0.6196610652356068    0.3711818914351530    0.3824281156091955
0.8767810332591193    0.3753189472808985    0.1262545524925143
0.8697813823547464    0.1248661009075835    0.3770907611396287
0.5596617451455009    0.0490562103914437    0.8100446445991979
0.5584255861370644    0.4457546042598821    0.6936318152187511
0.9522982101659245    0.4397454137901426    0.8047960952216697
0.9385954190735377    0.0608042949171530    0.6854983419412560
0.8074079093080658    0.0604777331368080    0.5585724040223277
0.6924440124271696    0.0473378258507512    0.9420550176105489
0.8138660807095921    0.4432541746463877    0.9488570086436185
0.6902922824620568    0.4407155503162959    0.5658405447049975
0.5552032136190701    0.2988291758902420    0.5615325670251068
0.9443624413721394    0.1999620534902642    0.5584192934742106
0.9483987634953214    0.3043512598193448    0.9338594953553586
0.5571629135693540    0.1926835847609832    0.9424300671359024
0.8082084579358837    0.3074707276048950    0.8070078157442910
0.8116754358188160    0.1901729788616462    0.6940116113617789
0.6923368085705132    0.1925611039698632    0.8072881354538060
0.6948667232834896    0.3043431582261510    0.6871038760769022
0.6244712385636867    0.1201026127578507    0.6306801577013390
0.6258021588464632    0.3771717791428991    0.8763276972821058
0.8791754078681068    0.3775746805503736    0.6278050705341938
0.8721329332547439    0.1202445268384580    0.8738794543954118
0.5579857693327130    0.5594165559309525    0.3115965165495255
0.5548083334552181    0.9468634343353660    0.1897964893921743
0.9396210009933432    0.9409546309317591    0.3067017230483278
0.9402656505388797    0.5704647191349864    0.1899810570228188
0.8082249813109526    0.5654456523410800    0.0584043834692790
0.6894998923303379    0.5525005457695051    0.4443699532764787
0.8077792792075601    0.9392318161403252    0.4497819064956332
0.6948204911654994    0.9326341694741910    0.0601444573300779
0.5563659453762245    0.8064423429737032    0.0614896680246879
0.9478860274111313    0.6896155302614829    0.0495700732494960
0.9326808612873783    0.8088239776731825    0.4442804519005585
0.5588756584303294    0.6941224247847729    0.4393285824326305
0.8024273475101263    0.8110248548689044    0.3096838183235591
0.7999857253063124    0.6898325148890732    0.1976944320810069
0.6865560981161020    0.6949936091712916    0.3122239543397249
0.6869616850895820    0.8091767367039483    0.1945655479341309
0.6214030905253021    0.6254560370725135    0.1274577815401157
0.6226314196295223    0.8833208594854484    0.3742207302834301
0.8750767649163026    0.8662882286643909    0.1238229719046230
0.8691072904635052    0.6268748707731645    0.3785714419631395
0.5567738414052249    0.5653874673313651    0.8070306468816048
0.5603916602469564    0.9325675589120076    0.6949904043452394
0.9392741637728301    0.9470442969012305    0.8039514605867873
0.9480858724191064    0.5582540949614490    0.6902161067709845
0.8047531882477822    0.5569054941862256    0.5611039980217750
0.6938870078202904    0.5569400438814386    0.9440812065187496
0.8099912073333997    0.9323461154285514    0.9450928580886699
0.6908590420841255    0.9429391301481663    0.5624289285354099
0.5619616384621982    0.8118351607447565    0.5522762135316924
0.9356671330912549    0.6911013634106175    0.5572658490754266
0.9448181552275975    0.8089042561562272    0.9363663121378523
0.5575785532379656    0.6857985655373825    0.9496442192060122
0.8104134719999195    0.8054614243528117    0.8076414245409047
0.8106457899285358    0.6887850288028564    0.6916917523843747
0.6987004201480432    0.6852061329043763    0.8084973241209304
0.6936616053823447    0.8033898210077466    0.6939853391539491
0.6247309848449498    0.6325461990154229    0.6232789883437247
0.6263571308942212    0.8656779651056994    0.8766288141911616
0.8709710668358304    0.8728408923687475    0.6294926232209310
0.8773639906713284    0.6250014663936180    0.8717239959724138
0.9784355286044285    0.0292089825727716    0.9801562949673339
0.2289209675331737    0.2528152707275550    0.9794918501619995
0.2560430473035402    0.0182487568129479    0.2254082954378042
0.9770495052991269    0.2755699578802819    0.2298818705434055
0.9784621263475740    0.0361796369444926    0.4854773642765448
0.2474870083823852    0.2063773122483228    0.4974366905610807
0.2178445795141307    0.9946053532366490    0.7724723295685790
0.0020957578701584    0.2747985048445670    0.7261534085143100
0.0214822238595345    0.5194756746662678    0.9776177523608138
0.2447207244022707    0.7441770251305909    0.0188850428631045
0.2144779227548816    0.4933458600369017    0.2300515987083779
0.9712682142784309    0.7544001919282914    0.2201066286731569
0.9783363793604254    0.4940923468956371    0.4655150109653874
0.2165489046900409    0.7504896834895186    0.4681779028944897
0.2570934247991588    0.4547941044349438    0.7448088421156253
0.9652472768401205    0.7487056641033463    0.7441890298301121
0.4647802401772642    0.0061223575191702    0.0066301537410391
0.7298827057367712    0.2212433682573870    0.9797367104814076
0.7289643280028855    0.0295117379806098    0.2297395490993900
0.4751766129454795    0.2741884795212956    0.2524941760000665
0.5235664872295461    0.9942153806843675    0.4688518089964444
0.7254565086301190    0.2525319316695497    0.4824712002908992
0.7569403734732520    0.0053159747345369    0.7148525950229733
0.5002684555952372    0.2040609781334489    0.7504631537778281
0.5339017669669414    0.4868593791819720    0.0259595122668543
0.7751547780409662    0.7491985852468355    0.0250136505263946
0.7272829560059687    0.5199018115766645    0.2713727512607600
0.4940111024581016    0.7483816327505466    0.2163032776219782
0.4944687017534545    0.4547217258853337    0.5069197472267113
0.7691322784069612    0.7442954959818308    0.4949784242534253
0.7769912513888891    0.4868526828024644    0.7835636303835031
0.5307336771811368    0.7476967969551618    0.7811852226776071
Direct configuration=      2
0.0185856467940309    0.0984431952109057    0.0897700566601229
0.1196609500859270    0.5021714228952184    0.3629857340244757
0.4877382418804527    0.4049039486223816    0.0953920676086487
0.3589121355393733    0.0064561496541859    0.3715953243496728
0.0020341653226957    0.4065664179501767    0.3800042899764912
0.1614445846543414    0.0028140586958560    0.1578777480877328
0.4884077405726005    0.1113644403632144    0.3794523367348116
0.3698623112600266    0.4895405572133096    0.1163427269146449
0.3580100697419235    0.1347835863631308    0.4895722079414651
0.3543002396797810    0.3644505059294275    0.0108157021401017
0.1712623555028157    0.1549191853148285    0.0062317552367103
0.1277189382098575    0.3884882595384794    0.4798117812159227
0.2615642907295754    0.3814958450296888    0.1461678763852470
0.3949898817681559    0.2334396149601012    0.3378453001193242
0.2411646027101772    0.1047417091301434    0.1517997342319516
0.1054433430465516    0.2804045998030073    0.3620230823309932
0.2500057089081755    0.1414835235281325    0.3959578496019603
0.3998278899987313    0.2634903444018914    0.1558234825568055
0.2373741263642718    0.3834135802653716    0.3665974258545531
0.1138843224139790    0.2291258655524984    0.1219973944246247
0.1313740546862306    0.1156045029950267    0.2410026672788218
0.1251986251957559    0.3946906874872390    0.2540992970372402
0.3527737338301114    0.0940515035099187    0.2666405392989459
0.4059745916499790    0.3688849920565128    0.2434869338473933
0.0139766064462023    0.1090355960788533    0.5916742784307883
0.0959061305973423    0.4780556572105246    0.8822280692389565
0.4832719323923141    0.3903398435098716    0.6163823407931599
0.4248552394796416    0.0097739594362238    0.8948146986353446
0.0129697635785602    0.3521773183402054    0.8315686745351046
0.1193642101525541    0.0099587687376681    0.6121224307322726
0.5026103003334460    0.1496587392771639    0.8503716127484303
0.3818484618750299    0.4872603831999374    0.6343443265819122
0.4005862322561106    0.0985596307095016    0.9829889799369078
0.3914112985388936    0.3765370912582876    0.5134819718528113
0.1398098849068274    0.1450850478661433    0.4991134435734284
0.1534495991496792    0.3513174620691814    0.9870039908012197
0.2631592637217643    0.3974108172294555    0.6426965534588284
0.3443932443443211    0.2321492266453742    0.8910485960912483
0.2358749008575269    0.1454569931032410    0.5974533981547427
0.1544199386298857    0.2545173018204840    0.8739960802103880
0.2684551655991684    0.1016124247105976    0.8424204360381419
0.3780251842817199    0.2664068700989699    0.6296517589843055
0.2427891622454645    0.3895027711159084    0.8703020555719497
0.0948862604452406    0.2412383899051264    0.6598415422867017
0.1377624122396642    0.1086884765529155    0.7387442210792108
0.1528220262899167    0.3907876247407022    0.7527522340125512
0.4018700798829624    0.1443622214363947    0.7700424262237434
0.3466843128948782    0.3906717662533082    0.7357417499022364
0.0234008054732522    0.6609129636134238    0.1531291718403982
0.1313826147480567    0.9818347483819283    0.3641493281134136
0.4895940611977310    0.8559251984370656    0.1587494806326823
0.3624418500210080    0.5271695079355370    0.3694950983733478
0.0102709426475510    0.8686551929223635    0.3725322696391811
0.1395267580067268    0.5067697534880673    0.1263369033558586
0.4903028569126802    0.6303397905918597    0.3692031235378747
0.3879671484674790    0.9913020132396116    0.0944613207303176